<LesHouchesEvents version="3.0">
<header>
<!--
#*********************************************************************
#                                                                    *
#                        MadGraph5_aMC@NLO                           *
#                                                                    *
#                           Going Beyond                             *
#                                                                    *
#                   http://madgraph.hep.uiuc.edu                     *
#                   http://madgraph.phys.ucl.ac.be                   *
#                   http://amcatnlo.cern.ch                          *
#                                                                    *
#                     The MadGraph5_aMC@NLO team                     *
#                                                                    *
#....................................................................*
#                                                                    *
# This file contains all the information necessary to reproduce      *
# the events generated:                                              *
#                                                                    *
# 1. software version                                                *
# 2. proc_card          : code generation info including model       *
# 3. param_card         : model primary parameters in the LH format  *
# 4. run_card           : running parameters (collider and cuts)     *
# 5. pythia_card        : present only if pythia has been run        *
# 6. pgs_card           : present only if pgs has been run           *
# 7. delphes_cards      : present only if delphes has been run       *
#                                                                    *
#                                                                    *
#*********************************************************************
-->
<MGVersion>
#2.6.5
</MGVersion>
<MG5ProcCard>
<![CDATA[
#************************************************************
#*                     MadGraph5_aMC@NLO                    *
#*                                                          *
#*                *                       *                 *
#*                  *        * *        *                   *
#*                    * * * * 5 * * * *                     *
#*                  *        * *        *                   *
#*                *                       *                 *
#*                                                          *
#*                                                          *
#*         VERSION 2.6.5                 2018-02-03         *
#*                                                          *
#*    The MadGraph5_aMC@NLO Development Team - Find us at   *
#*    https://server06.fynu.ucl.ac.be/projects/madgraph     *
#*                                                          *
#************************************************************
#*                                                          *
#*               Command File for MadGraph5_aMC@NLO         *
#*                                                          *
#*     run as ./bin/mg5_aMC  filename                       *
#*                                                          *
#************************************************************
set default_unset_couplings 99
set loop_color_flows False
set gauge unitary
set max_npoint_for_channel 0
set group_subprocesses Auto
set ignore_six_quark_processes False
set loop_optimized_output True
set complex_mass_scheme False
import model STP_UFO_freeWidth
define p = g u c d s u~ c~ d~ s~
define j = g u c d s u~ c~ d~ s~
define l+ = e+ mu+
define l- = e- mu-
define vl = ve vm vt
define vl~ = ve~ vm~ vt~
define bb = b b~
define tt = t t~
generate p p > t23 > j bb tt z / h
add process p p > t23~ > j bb tt z / h
output tZ_b_LH_M600
]]>
</MG5ProcCard>
<MGProcCard>
#*********************************************************************
#                        MadGraph/MadEvent                           *
#                   http://madgraph.hep.uiuc.edu                     *
#                                                                    *
#                          proc_card.dat                             *
#*********************************************************************
#                                                                    *
#            This Files is generated by MADGRAPH 5                   *
#                                                                    *
# WARNING: This Files is generated for MADEVENT (compatibility issue)*
#          This files is NOT a valid MG4 proc_card.dat               *
#          Running this in MG4 will NEVER reproduce the result of MG5*
#                                                                    *
#*********************************************************************
#*********************************************************************
# Process(es) requested : mg2 input                                  *
#*********************************************************************
# Begin PROCESS # This is TAG. Do not modify this line
p p > t23 > j bb tt z / h           #Process
# Be carefull the coupling are here in MG5 convention
          
end_coup           # End the couplings input

done               # this tells MG there are no more procs
# End PROCESS  # This is TAG. Do not modify this line
#*********************************************************************
# Model information                                                  *
#*********************************************************************
# Begin MODEL  # This is TAG. Do not modify this line
STP_UFO_freeWidth
# End   MODEL  # This is TAG. Do not modify this line
#*********************************************************************
# Start multiparticle definitions                                    *
#*********************************************************************
# Begin MULTIPARTICLES # This is TAG. Do not modify this line

# End  MULTIPARTICLES # This is TAG. Do not modify this line
</MGProcCard>
<MGRunCard>
<![CDATA[
#*********************************************************************
#                       MadGraph5_aMC@NLO                            *
#                                                                    *
#                     run_card.dat MadEvent                          *
#                                                                    *
#  This file is used to set the parameters of the run.               *
#                                                                    *
#  Some notation/conventions:                                        *
#                                                                    *
#   Lines starting with a '# ' are info or comments                  *
#                                                                    *
#   mind the format:   value    = variable     ! comment             *
#                                                                    *
#   To display more options, you can type the command:               *
#      update full_run_card                                          *
#*********************************************************************
#
#*******************                                                 
# Running parameters
#*******************                                                 
#                                                                    
#*********************************************************************
# Tag name for the run (one word)                                    *
#*********************************************************************
  tag_1	= run_tag ! name of the run 
#*********************************************************************
# Number of events and rnd seed                                      *
# Warning: Do not generate more than 1M events in a single run       *
# If you want to run Pythia, avoid more than 50k events in a run.    *
#*********************************************************************
  1000	= nevents ! Number of unweighted events requested 
 10 = iseed ! rnd seed (0=assigned automatically=default))
#*********************************************************************
# Collider type and energy                                           *
# lpp: 0=No PDF, 1=proton, -1=antiproton, 2=photon from proton,      *
#                                         3=photon from electron     *
#*********************************************************************
  1	= lpp1 ! beam 1 type 
  1	= lpp2 ! beam 2 type
  6500.0	= ebeam1 ! beam 1 total energy in GeV
  6500.0	= ebeam2 ! beam 2 total energy in GeV
#*********************************************************************
# Beam polarization from -100 (left-handed) to 100 (right-handed)    *
#*********************************************************************
     0.0     = polbeam1 ! beam polarization for beam 1
     0.0     = polbeam2 ! beam polarization for beam 2

#*********************************************************************
# PDF CHOICE: this automatically fixes also alpha_s and its evol.    *
#*********************************************************************
  lhapdf	= pdlabel ! PDF set                                     
  325500	= lhaid ! if pdlabel=lhapdf, this is the lhapdf number
# To see heavy ion options: type "update ion_pdf"
#*********************************************************************
# Renormalization and factorization scales                           *
#*********************************************************************
  False	= fixed_ren_scale ! if .true. use fixed ren scale
  False	= fixed_fac_scale ! if .true. use fixed fac scale
  91.188	= scale ! fixed ren scale
  91.188	= dsqrt_q2fact1 ! fixed fact scale for pdf1
  91.188	= dsqrt_q2fact2 ! fixed fact scale for pdf2
  -1	= dynamical_scale_choice ! Choose one of the preselected dynamical choices
  1.0	= scalefact ! scale factor for event-by-event scales
#*********************************************************************
# Type and output format
#*********************************************************************
  True	= gridpack !True = setting up the grid pack
  -1.0	= time_of_flight ! threshold (in mm) below which the invariant livetime is not written (-1 means not written)
  3.0	= lhe_version ! Change the way clustering information pass to shower.        
  True	= clusinfo ! include clustering tag in output
  sum	= event_norm ! average/sum. Normalization of the weight in the LHEF

#*********************************************************************
# Matching parameter (MLM only)
#*********************************************************************
  0	= ickkw ! 0 no matching, 1 MLM
  1.0	= alpsfact ! scale factor for QCD emission vx
  False	= chcluster ! cluster only according to channel diag
  5	= asrwgtflavor ! highest quark flavor for a_s reweight
  True	= auto_ptj_mjj ! Automatic setting of ptj and mjj if xqcut >0
                                   ! (turn off for VBF and single top processes) 
  0.0	= xqcut ! minimum kt jet measure between partons
#*********************************************************************
#
#*********************************************************************
# handling of the helicities:
#  0: sum over all helicities
#  1: importance sampling over helicities
#*********************************************************************
  0	= nhel ! using helicities importance sampling or not.
#*********************************************************************
# Generation bias, check the wiki page below for more information:   *
#  'cp3.irmp.ucl.ac.be/projects/madgraph/wiki/LOEventGenerationBias' *
#*********************************************************************
  None	= bias_module ! Bias type of bias, [None, ptj_bias, -custom_folder-]
  {}	= bias_parameters ! Specifies the parameters of the module.
#
#*******************************                                                 
# Parton level cuts definition *
#*******************************                                     
#                                                                    
#
#*********************************************************************
# BW cutoff (M+/-bwcutoff*Gamma) ! Define on/off-shell for "$" and decay  
#*********************************************************************
  15.0	= bwcutoff ! (M+/-bwcutoff*Gamma)
#*********************************************************************
# Apply pt/E/eta/dr/mij/kt_durham cuts on decay products or not
# (note that etmiss/ptll/ptheavy/ht/sorted cuts always apply)
#*********************************************************************
  False	= cut_decays ! Cut decay products 
#*********************************************************************
# Standard Cuts                                                      *
#*********************************************************************
# Minimum and maximum pt's (for max, -1 means no cut)                *
#*********************************************************************
  5.0	= ptj ! minimum pt for the jets 
  0.0	= ptb ! minimum pt for the b 
  0.0	= pta ! minimum pt for the photons 
  0.0	= ptl ! minimum pt for the charged leptons 
  0.0	= misset ! minimum missing Et (sum of neutrino's momenta)
  -1.0	= ptjmax ! maximum pt for the jets
  -1.0	= ptbmax ! maximum pt for the b
  -1.0	= ptamax ! maximum pt for the photons
  -1.0	= ptlmax ! maximum pt for the charged leptons
  -1.0	= missetmax ! maximum missing Et (sum of neutrino's momenta)
  {}	= pt_min_pdg ! pt cut for other particles (use pdg code). Applied on particle and anti-particle
  {}	= pt_max_pdg ! pt cut for other particles (syntax e.g. {6: 100, 25: 50}) 
#*********************************************************************
# Minimum and maximum E's (in the center of mass frame)              *
#*********************************************************************
  0.0	= ej ! minimum E for the jets 
  0.0	= eb ! minimum E for the b 
  0.0	= ea ! minimum E for the photons 
  0.0	= el ! minimum E for the charged leptons 
  -1.0	= ejmax ! maximum E for the jets
  -1.0	= ebmax ! maximum E for the b
  -1.0	= eamax ! maximum E for the photons
  -1.0	= elmax ! maximum E for the charged leptons
  {}	= e_min_pdg ! E cut for other particles (use pdg code). Applied on particle and anti-particle
  {}	= e_max_pdg ! E cut for other particles (syntax e.g. {6: 100, 25: 50}) 
#*********************************************************************
# Maximum and minimum absolute rapidity (for max, -1 means no cut)   *
#*********************************************************************
  5.0	= etaj ! max rap for the jets 
  5.0	= etab ! max rap for the b
  2.5	= etaa ! max rap for the photons 
  -1.0	= etal ! max rap for the charged leptons 
  0.0	= etajmin ! min rap for the jets
  0.0	= etabmin ! min rap for the b
  0.0	= etaamin ! min rap for the photons
  0.0	= etalmin ! main rap for the charged leptons
  {}	= eta_min_pdg ! rap cut for other particles (use pdg code). Applied on particle and anti-particle
  {}	= eta_max_pdg ! rap cut for other particles (syntax e.g. {6: 2.5, 23: 5})
#*********************************************************************
# Minimum and maximum DeltaR distance                                *
#*********************************************************************
  0.01	= drjj ! min distance between jets 
  0.01	= drbb ! min distance between b's 
  0.0	= drll ! min distance between leptons 
  0.0	= draa ! min distance between gammas 
  0.01	= drbj ! min distance between b and jet 
  0.0	= draj ! min distance between gamma and jet 
  0.0	= drjl ! min distance between jet and lepton 
  0.0	= drab ! min distance between gamma and b 
  0.0	= drbl ! min distance between b and lepton 
  0.0	= dral ! min distance between gamma and lepton 
  -1.0	= drjjmax ! max distance between jets
  -1.0	= drbbmax ! max distance between b's
  -1.0	= drllmax ! max distance between leptons
  -1.0	= draamax ! max distance between gammas
  -1.0	= drbjmax ! max distance between b and jet
  -1.0	= drajmax ! max distance between gamma and jet
  -1.0	= drjlmax ! max distance between jet and lepton
  -1.0	= drabmax ! max distance between gamma and b
  -1.0	= drblmax ! max distance between b and lepton
  -1.0	= dralmax ! maxdistance between gamma and lepton
#*********************************************************************
# Minimum and maximum invariant mass for pairs                       *
# WARNING: for four lepton final state mmll cut require to have      *
#          different lepton masses for each flavor!                  *           
#*********************************************************************
  0.0	= mmjj ! min invariant mass of a jet pair 
  0.0	= mmbb ! min invariant mass of a b pair 
  0.0	= mmaa ! min invariant mass of gamma gamma pair
  0.0	= mmll ! min invariant mass of l+l- (same flavour) lepton pair
  -1.0	= mmjjmax ! max invariant mass of a jet pair
  -1.0	= mmbbmax ! max invariant mass of a b pair
  -1.0	= mmaamax ! max invariant mass of gamma gamma pair
  -1.0	= mmllmax ! max invariant mass of l+l- (same flavour) lepton pair
  {}	= mxx_min_pdg ! min invariant mass of a pair of particles X/X~ (e.g. {6:250})
  {'default': False}	= mxx_only_part_antipart ! if True the invariant mass is applied only 
                       ! to pairs of particle/antiparticle and not to pairs of the same pdg codes.  
#*********************************************************************
# Minimum and maximum invariant mass for all letpons                 *
#*********************************************************************
  0.0	= mmnl ! min invariant mass for all letpons (l+- and vl) 
  -1.0	= mmnlmax ! max invariant mass for all letpons (l+- and vl) 
#*********************************************************************
# Minimum and maximum pt for 4-momenta sum of leptons                *
#*********************************************************************
  0.0	= ptllmin ! Minimum pt for 4-momenta sum of leptons(l and vl)
  -1.0	= ptllmax ! Maximum pt for 4-momenta sum of leptons(l and vl)
#*********************************************************************
# Inclusive cuts                                                     *
#*********************************************************************
  0.0	= ptheavy ! minimum pt for at least one heavy final state
  0.0	= xptj ! minimum pt for at least one jet  
  0.0	= xptb ! minimum pt for at least one b 
  0.0	= xpta ! minimum pt for at least one photon 
  0.0	= xptl ! minimum pt for at least one charged lepton 
#*********************************************************************
# Control the pt's of the jets sorted by pt                          *
#*********************************************************************
  0.0	= ptj1min ! minimum pt for the leading jet in pt
  0.0	= ptj2min ! minimum pt for the second jet in pt
  0.0	= ptj3min ! minimum pt for the third jet in pt
  0.0	= ptj4min ! minimum pt for the fourth jet in pt
  -1.0	= ptj1max ! maximum pt for the leading jet in pt 
  -1.0	= ptj2max ! maximum pt for the second jet in pt
  -1.0	= ptj3max ! maximum pt for the third jet in pt
  -1.0	= ptj4max ! maximum pt for the fourth jet in pt
  0	= cutuse ! reject event if fails any (0) / all (1) jet pt cuts
#*********************************************************************
# Control the pt's of leptons sorted by pt                           *
#*********************************************************************
  0.0	= ptl1min ! minimum pt for the leading lepton in pt
  0.0	= ptl2min ! minimum pt for the second lepton in pt
  0.0	= ptl3min ! minimum pt for the third lepton in pt
  0.0	= ptl4min ! minimum pt for the fourth lepton in pt
  -1.0	= ptl1max ! maximum pt for the leading lepton in pt 
  -1.0	= ptl2max ! maximum pt for the second lepton in pt
  -1.0	= ptl3max ! maximum pt for the third lepton in pt
  -1.0	= ptl4max ! maximum pt for the fourth lepton in pt
#*********************************************************************
# Control the Ht(k)=Sum of k leading jets                            *
#*********************************************************************
  0.0	= htjmin ! minimum jet HT=Sum(jet pt)
  -1.0	= htjmax ! maximum jet HT=Sum(jet pt)
  0.0	= ihtmin !inclusive Ht for all partons (including b)
  -1.0	= ihtmax !inclusive Ht for all partons (including b)
  0.0	= ht2min ! minimum Ht for the two leading jets
  0.0	= ht3min ! minimum Ht for the three leading jets
  0.0	= ht4min ! minimum Ht for the four leading jets
  -1.0	= ht2max ! maximum Ht for the two leading jets
  -1.0	= ht3max ! maximum Ht for the three leading jets
  -1.0	= ht4max ! maximum Ht for the four leading jets
#***********************************************************************
# Photon-isolation cuts, according to hep-ph/9801442                   *
# When ptgmin=0, all the other parameters are ignored                  *
# When ptgmin>0, pta and draj are not going to be used                 *
#***********************************************************************
  0.0	= ptgmin ! Min photon transverse momentum
  0.4	= r0gamma ! Radius of isolation code
  1.0	= xn ! n parameter of eq.(3.4) in hep-ph/9801442
  1.0	= epsgamma ! epsilon_gamma parameter of eq.(3.4) in hep-ph/9801442
  True	= isoem ! isolate photons from EM energy (photons and leptons)
#*********************************************************************
# WBF cuts                                                           *
#*********************************************************************
  0.0	= xetamin ! minimum rapidity for two jets in the WBF case  
  0.0	= deltaeta ! minimum rapidity for two jets in the WBF case 
#***********************************************************************
# Turn on either the ktdurham or ptlund cut to activate                *
# CKKW(L) merging with Pythia8 [arXiv:1410.3012, arXiv:1109.4829]      *
#***********************************************************************
  -1.0	= ktdurham 
  0.4	= dparameter 
  -1.0	= ptlund 
  21, 1, 2, 3, 4, 5, 6	= pdgs_for_merging_cut ! PDGs for two cuts above   
#*********************************************************************
# maximal pdg code for quark to be considered as a light jet         *
# (otherwise b cuts are applied)                                     *
#*********************************************************************
  4	= maxjetflavor ! Maximum jet pdg code
#*********************************************************************
#
#*********************************************************************
# Store info for systematics studies                                 *
# WARNING: Do not use for interference type of computation           *
#*********************************************************************
  True	= use_syst ! Enable systematics studies
#
  None	= systematics_program ! none, systematics [python], SysCalc [depreceted, C++]
['--mur=0.5,1,2', '--muf=0.5,1,2', '--pdf=errorset'] = systematics_arguments ! see: https://cp3.irmp.ucl.ac.be/projects/madgraph/wiki/Systematics#Systematicspythonmodule
# Syscalc is deprecated but to see the associate options type'update syscalc'#********************************************************************* 
#  Additional hidden parameters
#*********************************************************************
  True	= pdfwgt # hidden_parameter
  1.0	= ptonium # hidden_parameter
  1	= highestmult # hidden_parameter
  1	= ktscheme # hidden_parameter
  0.6	= etaonium # hidden_parameter
]]>
</MGRunCard>
<slha>
######################################################################
## PARAM_CARD AUTOMATICALY GENERATED BY MG5                       ####
######################################################################
###################################
## INFORMATION FOR BSM
###################################
BLOCK BSM # 
      1 1.000000e-01 # cltw
      2 0.000000e+00 # crtw
      3 1.000000e-01 # cltz
      4 0.000000e+00 # crtz
      5 1.000000e-01 # clth
      6 0.000000e+00 # crth
      7 1.000000e+00 # clbw
      8 1.000000e+00 # crbw
      9 1.000000e+00 # clbz
      10 1.000000e+00 # crbz
      11 1.000000e+00 # clbh
      12 1.000000e+00 # crbh
      13 1.000000e+00 # clxw
      14 1.000000e+00 # crxw
      15 1.000000e+00 # clyw
      16 1.000000e+00 # cryw
      17 1.000000e+00 # clvw
      18 1.000000e+00 # crvw
      19 3.000000e+03 # lambda
###################################
## INFORMATION FOR CKMBLOCK
###################################
BLOCK CKMBLOCK # 
      1 2.277360e-01 # cabi
###################################
## INFORMATION FOR MASS
###################################
BLOCK MASS # 
      1 5.040000e-03 # md
      2 2.550000e-03 # mu
      3 1.010000e-01 # ms
      4 1.270000e+00 # mc
      5 4.670000e+00 # mbot
      6 1.725000e+02 # mtop
      11 5.110000e-04 # me
      13 1.056600e-01 # mm
      15 1.777000e+00 # mta
      23 9.118760e+01 # mz
      24 8.039900e+01 # mw
      25 1.250000e+02 # mh
      8000001 6.000000e+02 # mt23
      8000002 7.000000e+02 # mb13
      8000003 7.000000e+02 # mx53
      8000004 7.000000e+02 # my43
      8000005 7.000000e+02 # mv83
      12 0.000000e+00 # ve : 0.0
      14 0.000000e+00 # vm : 0.0
      16 0.000000e+00 # vt : 0.0
      21 0.000000e+00 # g : 0.0
      22 0.000000e+00 # a : 0.0
###################################
## INFORMATION FOR SMINPUTS
###################################
BLOCK SMINPUTS # 
      1 1.279000e+02 # aewm1
      2 1.166370e-05 # gf
      3 1.184000e-01 # as
###################################
## INFORMATION FOR YUKAWA
###################################
BLOCK YUKAWA # 
      1 5.040000e-03 # ymdo
      2 2.550000e-03 # ymup
      3 1.010000e-01 # yms
      4 1.270000e+00 # ymc
      5 4.670000e+00 # ymb
      6 1.725000e+02 # ymt
      11 5.110000e-04 # yme
      13 1.056600e-01 # ymm
      15 1.777000e+00 # ymtau
###################################
## INFORMATION FOR DECAY
###################################
BLOCK QNUMBERS 8000001 #  t23
      1 2 # 3 times electric charge
      2 2 # number of spin states (2s+1)
      3 3 # colour rep (1: singlet, 3: triplet, 8: octet)
      4 1 # particle/antiparticle distinction (0=own anti)
###################################
## INFORMATION FOR QNUMBERS 8000002
###################################
BLOCK QNUMBERS 8000002 #  b13
      1 -1 # 3 times electric charge
      2 2 # number of spin states (2s+1)
      3 3 # colour rep (1: singlet, 3: triplet, 8: octet)
      4 1 # particle/antiparticle distinction (0=own anti)
###################################
## INFORMATION FOR QNUMBERS 8000003
###################################
BLOCK QNUMBERS 8000003 #  x53
      1 5 # 3 times electric charge
      2 2 # number of spin states (2s+1)
      3 3 # colour rep (1: singlet, 3: triplet, 8: octet)
      4 1 # particle/antiparticle distinction (0=own anti)
###################################
## INFORMATION FOR QNUMBERS 8000004
###################################
BLOCK QNUMBERS 8000004 #  y43
      1 -4 # 3 times electric charge
      2 2 # number of spin states (2s+1)
      3 3 # colour rep (1: singlet, 3: triplet, 8: octet)
      4 1 # particle/antiparticle distinction (0=own anti)
###################################
## INFORMATION FOR QNUMBERS 8000005
###################################
BLOCK QNUMBERS 8000005 #  v83
      1 8 # 3 times electric charge
      2 2 # number of spin states (2s+1)
      3 3 # colour rep (1: singlet, 3: triplet, 8: octet)
      4 1 # particle/antiparticle distinction (0=own anti)
#
#*************************
#      Decay widths      *
#*************************
#
#      PDG        Width
DECAY  1   0.000000e+00
#
#      PDG        Width
DECAY  2   0.000000e+00
#
#      PDG        Width
DECAY  3   0.000000e+00
#
#      PDG        Width
DECAY  4   0.000000e+00
#
#      PDG        Width
DECAY  5   0.000000e+00
#
#      PDG        Width
DECAY  6   1.476600e+00
#  BR             NDA  ID1    ID2   ...
   1.000000e+00   2    5  24 # 1.4766
#
#      PDG        Width
DECAY  11   0.000000e+00
#
#      PDG        Width
DECAY  12   0.000000e+00
#
#      PDG        Width
DECAY  13   0.000000e+00
#
#      PDG        Width
DECAY  14   0.000000e+00
#
#      PDG        Width
DECAY  15   0.000000e+00
#
#      PDG        Width
DECAY  16   0.000000e+00
#
#      PDG        Width
DECAY  21   0.000000e+00
#
#      PDG        Width
DECAY  22   0.000000e+00
#
#      PDG        Width
DECAY  23   2.444424e+00
#  BR             NDA  ID1    ID2   ...
   1.521708e-01   2    -1  1 # 0.371969955619
   1.521708e-01   2    -3  3 # 0.371969955619
   1.505549e-01   2    -5  5 # 0.368020010878
   1.181096e-01   2    -2  2 # 0.28870994087
   1.179910e-01   2    -4  4 # 0.288420032184
   6.854376e-02   2    -12  12 # 0.167550011994
   6.854376e-02   2    -14  14 # 0.167550011994
   6.854376e-02   2    -16  16 # 0.167550011994
   3.448338e-02   2    -11  11 # 0.0842920016731
   3.448297e-02   2    -13  13 # 0.0842909994593
   3.440524e-02   2    -15  15 # 0.0841009943818
#
#      PDG        Width
DECAY  24   2.046081e+00
#  BR             NDA  ID1    ID2   ...
   3.164098e-01   2    -1  2 # 0.647400079994
   3.162876e-01   2    -3  4 # 0.647150048896
   1.111344e-01   2    -11  12 # 0.227389984286
   1.111344e-01   2    -13  14 # 0.227389984286
   1.110513e-01   2    -15  16 # 0.227219954955
   1.699444e-02   2    -3  2 # 0.0347720007896
   1.698809e-02   2    -1  4 # 0.0347590081753
#
#      PDG        Width
DECAY  25   5.753088e-03
#
#      PDG        Width
DECAY  8000001   1.000000e-03
#
#      PDG        Width
DECAY  8000002   1.000000e+01
#
#      PDG        Width
DECAY  8000003   1.000000e+01
#
#      PDG        Width
DECAY  8000004   1.000000e+01
#
#      PDG        Width
DECAY  8000005   1.000000e+00
</slha>
<initrwgt>
<weightgroup name="NNPDF31_nnlo_as_0118_nf_4_mc_hessian" combine="symmhessian"> # 325500: Hessian NNPDF31_nnlo_as_0118_nf_4_mc_hessian
<weight id="1001" MUR="1.0" MUF="1.0" PDF="325500" >  </weight>
<weightgroup name="Central scale variation" combine="envelope">
</weightgroup> PDF 
<weight id="1002" MUR="1.0" MUF="1.0" DYN_SCALE="1" PDF="325500" > dyn_scale_choice=sum pt  </weight>
<weight id="1003" MUR="1.0" MUF="1.0" DYN_SCALE="2" PDF="325500" > dyn_scale_choice=HT  </weight>
<weight id="1004" MUR="1.0" MUF="1.0" DYN_SCALE="3" PDF="325500" > dyn_scale_choice=HT/2  </weight>
<weight id="1005" MUR="1.0" MUF="1.0" DYN_SCALE="4" PDF="325500" > dyn_scale_choice=sqrts  </weight>
<weight id="1006" MUR="2.0" MUF="1.0" PDF="325500" > MUR=2.0  </weight>
<weight id="1007" MUR="2.0" MUF="1.0" DYN_SCALE="1" PDF="325500" > MUR=2.0 dyn_scale_choice=sum pt  </weight>
<weight id="1008" MUR="2.0" MUF="1.0" DYN_SCALE="2" PDF="325500" > MUR=2.0 dyn_scale_choice=HT  </weight>
<weight id="1009" MUR="2.0" MUF="1.0" DYN_SCALE="3" PDF="325500" > MUR=2.0 dyn_scale_choice=HT/2  </weight>
<weight id="1010" MUR="2.0" MUF="1.0" DYN_SCALE="4" PDF="325500" > MUR=2.0 dyn_scale_choice=sqrts  </weight>
<weight id="1011" MUR="0.5" MUF="1.0" PDF="325500" > MUR=0.5  </weight>
<weight id="1012" MUR="0.5" MUF="1.0" DYN_SCALE="1" PDF="325500" > MUR=0.5 dyn_scale_choice=sum pt  </weight>
<weight id="1013" MUR="0.5" MUF="1.0" DYN_SCALE="2" PDF="325500" > MUR=0.5 dyn_scale_choice=HT  </weight>
<weight id="1014" MUR="0.5" MUF="1.0" DYN_SCALE="3" PDF="325500" > MUR=0.5 dyn_scale_choice=HT/2  </weight>
<weight id="1015" MUR="0.5" MUF="1.0" DYN_SCALE="4" PDF="325500" > MUR=0.5 dyn_scale_choice=sqrts  </weight>
<weight id="1016" MUR="1.0" MUF="2.0" PDF="325500" > MUF=2.0  </weight>
<weight id="1017" MUR="1.0" MUF="2.0" DYN_SCALE="1" PDF="325500" > MUF=2.0 dyn_scale_choice=sum pt  </weight>
<weight id="1018" MUR="1.0" MUF="2.0" DYN_SCALE="2" PDF="325500" > MUF=2.0 dyn_scale_choice=HT  </weight>
<weight id="1019" MUR="1.0" MUF="2.0" DYN_SCALE="3" PDF="325500" > MUF=2.0 dyn_scale_choice=HT/2  </weight>
<weight id="1020" MUR="1.0" MUF="2.0" DYN_SCALE="4" PDF="325500" > MUF=2.0 dyn_scale_choice=sqrts  </weight>
<weight id="1021" MUR="2.0" MUF="2.0" PDF="325500" > MUR=2.0 MUF=2.0  </weight>
<weight id="1022" MUR="2.0" MUF="2.0" DYN_SCALE="1" PDF="325500" > MUR=2.0 MUF=2.0 dyn_scale_choice=sum pt  </weight>
<weight id="1023" MUR="2.0" MUF="2.0" DYN_SCALE="2" PDF="325500" > MUR=2.0 MUF=2.0 dyn_scale_choice=HT  </weight>
<weight id="1024" MUR="2.0" MUF="2.0" DYN_SCALE="3" PDF="325500" > MUR=2.0 MUF=2.0 dyn_scale_choice=HT/2  </weight>
<weight id="1025" MUR="2.0" MUF="2.0" DYN_SCALE="4" PDF="325500" > MUR=2.0 MUF=2.0 dyn_scale_choice=sqrts  </weight>
<weight id="1026" MUR="0.5" MUF="2.0" PDF="325500" > MUR=0.5 MUF=2.0  </weight>
<weight id="1027" MUR="0.5" MUF="2.0" DYN_SCALE="1" PDF="325500" > MUR=0.5 MUF=2.0 dyn_scale_choice=sum pt  </weight>
<weight id="1028" MUR="0.5" MUF="2.0" DYN_SCALE="2" PDF="325500" > MUR=0.5 MUF=2.0 dyn_scale_choice=HT  </weight>
<weight id="1029" MUR="0.5" MUF="2.0" DYN_SCALE="3" PDF="325500" > MUR=0.5 MUF=2.0 dyn_scale_choice=HT/2  </weight>
<weight id="1030" MUR="0.5" MUF="2.0" DYN_SCALE="4" PDF="325500" > MUR=0.5 MUF=2.0 dyn_scale_choice=sqrts  </weight>
<weight id="1031" MUR="1.0" MUF="0.5" PDF="325500" > MUF=0.5  </weight>
<weight id="1032" MUR="1.0" MUF="0.5" DYN_SCALE="1" PDF="325500" > MUF=0.5 dyn_scale_choice=sum pt  </weight>
<weight id="1033" MUR="1.0" MUF="0.5" DYN_SCALE="2" PDF="325500" > MUF=0.5 dyn_scale_choice=HT  </weight>
<weight id="1034" MUR="1.0" MUF="0.5" DYN_SCALE="3" PDF="325500" > MUF=0.5 dyn_scale_choice=HT/2  </weight>
<weight id="1035" MUR="1.0" MUF="0.5" DYN_SCALE="4" PDF="325500" > MUF=0.5 dyn_scale_choice=sqrts  </weight>
<weight id="1036" MUR="2.0" MUF="0.5" PDF="325500" > MUR=2.0 MUF=0.5  </weight>
<weight id="1037" MUR="2.0" MUF="0.5" DYN_SCALE="1" PDF="325500" > MUR=2.0 MUF=0.5 dyn_scale_choice=sum pt  </weight>
<weight id="1038" MUR="2.0" MUF="0.5" DYN_SCALE="2" PDF="325500" > MUR=2.0 MUF=0.5 dyn_scale_choice=HT  </weight>
<weight id="1039" MUR="2.0" MUF="0.5" DYN_SCALE="3" PDF="325500" > MUR=2.0 MUF=0.5 dyn_scale_choice=HT/2  </weight>
<weight id="1040" MUR="2.0" MUF="0.5" DYN_SCALE="4" PDF="325500" > MUR=2.0 MUF=0.5 dyn_scale_choice=sqrts  </weight>
<weight id="1041" MUR="0.5" MUF="0.5" PDF="325500" > MUR=0.5 MUF=0.5  </weight>
<weight id="1042" MUR="0.5" MUF="0.5" DYN_SCALE="1" PDF="325500" > MUR=0.5 MUF=0.5 dyn_scale_choice=sum pt  </weight>
<weight id="1043" MUR="0.5" MUF="0.5" DYN_SCALE="2" PDF="325500" > MUR=0.5 MUF=0.5 dyn_scale_choice=HT  </weight>
<weight id="1044" MUR="0.5" MUF="0.5" DYN_SCALE="3" PDF="325500" > MUR=0.5 MUF=0.5 dyn_scale_choice=HT/2  </weight>
<weight id="1045" MUR="0.5" MUF="0.5" DYN_SCALE="4" PDF="325500" > MUR=0.5 MUF=0.5 dyn_scale_choice=sqrts  </weight>
</weightgroup> # scale
<weightgroup name="Emission scale variation" combine="envelope">
<weight id="1046" MUR="1.0" MUF="1.0" ALPSFACT="0.5" PDF="325500" > alpsfact=0.5  </weight>
<weight id="1047" MUR="1.0" MUF="1.0" ALPSFACT="2.0" PDF="325500" > alpsfact=2.0  </weight>
</weightgroup> # ALPS
<weightgroup name="NNPDF31_nnlo_as_0118_nf_4_mc_hessian" combine="symmhessian"> # 325500: Hessian NNPDF31_nnlo_as_0118_nf_4_mc_hessian
<weight id="1048" MUR="1.0" MUF="1.0" PDF="325500" >  </weight>
<weight id="1049" MUR="1.0" MUF="1.0" PDF="325501" > PDF=325500 MemberID=1 </weight>
<weight id="1050" MUR="1.0" MUF="1.0" PDF="325502" > PDF=325500 MemberID=2 </weight>
<weight id="1051" MUR="1.0" MUF="1.0" PDF="325503" > PDF=325500 MemberID=3 </weight>
<weight id="1052" MUR="1.0" MUF="1.0" PDF="325504" > PDF=325500 MemberID=4 </weight>
<weight id="1053" MUR="1.0" MUF="1.0" PDF="325505" > PDF=325500 MemberID=5 </weight>
<weight id="1054" MUR="1.0" MUF="1.0" PDF="325506" > PDF=325500 MemberID=6 </weight>
<weight id="1055" MUR="1.0" MUF="1.0" PDF="325507" > PDF=325500 MemberID=7 </weight>
<weight id="1056" MUR="1.0" MUF="1.0" PDF="325508" > PDF=325500 MemberID=8 </weight>
<weight id="1057" MUR="1.0" MUF="1.0" PDF="325509" > PDF=325500 MemberID=9 </weight>
<weight id="1058" MUR="1.0" MUF="1.0" PDF="325510" > PDF=325500 MemberID=10 </weight>
<weight id="1059" MUR="1.0" MUF="1.0" PDF="325511" > PDF=325500 MemberID=11 </weight>
<weight id="1060" MUR="1.0" MUF="1.0" PDF="325512" > PDF=325500 MemberID=12 </weight>
<weight id="1061" MUR="1.0" MUF="1.0" PDF="325513" > PDF=325500 MemberID=13 </weight>
<weight id="1062" MUR="1.0" MUF="1.0" PDF="325514" > PDF=325500 MemberID=14 </weight>
<weight id="1063" MUR="1.0" MUF="1.0" PDF="325515" > PDF=325500 MemberID=15 </weight>
<weight id="1064" MUR="1.0" MUF="1.0" PDF="325516" > PDF=325500 MemberID=16 </weight>
<weight id="1065" MUR="1.0" MUF="1.0" PDF="325517" > PDF=325500 MemberID=17 </weight>
<weight id="1066" MUR="1.0" MUF="1.0" PDF="325518" > PDF=325500 MemberID=18 </weight>
<weight id="1067" MUR="1.0" MUF="1.0" PDF="325519" > PDF=325500 MemberID=19 </weight>
<weight id="1068" MUR="1.0" MUF="1.0" PDF="325520" > PDF=325500 MemberID=20 </weight>
<weight id="1069" MUR="1.0" MUF="1.0" PDF="325521" > PDF=325500 MemberID=21 </weight>
<weight id="1070" MUR="1.0" MUF="1.0" PDF="325522" > PDF=325500 MemberID=22 </weight>
<weight id="1071" MUR="1.0" MUF="1.0" PDF="325523" > PDF=325500 MemberID=23 </weight>
<weight id="1072" MUR="1.0" MUF="1.0" PDF="325524" > PDF=325500 MemberID=24 </weight>
<weight id="1073" MUR="1.0" MUF="1.0" PDF="325525" > PDF=325500 MemberID=25 </weight>
<weight id="1074" MUR="1.0" MUF="1.0" PDF="325526" > PDF=325500 MemberID=26 </weight>
<weight id="1075" MUR="1.0" MUF="1.0" PDF="325527" > PDF=325500 MemberID=27 </weight>
<weight id="1076" MUR="1.0" MUF="1.0" PDF="325528" > PDF=325500 MemberID=28 </weight>
<weight id="1077" MUR="1.0" MUF="1.0" PDF="325529" > PDF=325500 MemberID=29 </weight>
<weight id="1078" MUR="1.0" MUF="1.0" PDF="325530" > PDF=325500 MemberID=30 </weight>
<weight id="1079" MUR="1.0" MUF="1.0" PDF="325531" > PDF=325500 MemberID=31 </weight>
<weight id="1080" MUR="1.0" MUF="1.0" PDF="325532" > PDF=325500 MemberID=32 </weight>
<weight id="1081" MUR="1.0" MUF="1.0" PDF="325533" > PDF=325500 MemberID=33 </weight>
<weight id="1082" MUR="1.0" MUF="1.0" PDF="325534" > PDF=325500 MemberID=34 </weight>
<weight id="1083" MUR="1.0" MUF="1.0" PDF="325535" > PDF=325500 MemberID=35 </weight>
<weight id="1084" MUR="1.0" MUF="1.0" PDF="325536" > PDF=325500 MemberID=36 </weight>
<weight id="1085" MUR="1.0" MUF="1.0" PDF="325537" > PDF=325500 MemberID=37 </weight>
<weight id="1086" MUR="1.0" MUF="1.0" PDF="325538" > PDF=325500 MemberID=38 </weight>
<weight id="1087" MUR="1.0" MUF="1.0" PDF="325539" > PDF=325500 MemberID=39 </weight>
<weight id="1088" MUR="1.0" MUF="1.0" PDF="325540" > PDF=325500 MemberID=40 </weight>
<weight id="1089" MUR="1.0" MUF="1.0" PDF="325541" > PDF=325500 MemberID=41 </weight>
<weight id="1090" MUR="1.0" MUF="1.0" PDF="325542" > PDF=325500 MemberID=42 </weight>
<weight id="1091" MUR="1.0" MUF="1.0" PDF="325543" > PDF=325500 MemberID=43 </weight>
<weight id="1092" MUR="1.0" MUF="1.0" PDF="325544" > PDF=325500 MemberID=44 </weight>
<weight id="1093" MUR="1.0" MUF="1.0" PDF="325545" > PDF=325500 MemberID=45 </weight>
<weight id="1094" MUR="1.0" MUF="1.0" PDF="325546" > PDF=325500 MemberID=46 </weight>
<weight id="1095" MUR="1.0" MUF="1.0" PDF="325547" > PDF=325500 MemberID=47 </weight>
<weight id="1096" MUR="1.0" MUF="1.0" PDF="325548" > PDF=325500 MemberID=48 </weight>
<weight id="1097" MUR="1.0" MUF="1.0" PDF="325549" > PDF=325500 MemberID=49 </weight>
<weight id="1098" MUR="1.0" MUF="1.0" PDF="325550" > PDF=325500 MemberID=50 </weight>
<weight id="1099" MUR="1.0" MUF="1.0" PDF="325551" > PDF=325500 MemberID=51 </weight>
<weight id="1100" MUR="1.0" MUF="1.0" PDF="325552" > PDF=325500 MemberID=52 </weight>
<weight id="1101" MUR="1.0" MUF="1.0" PDF="325553" > PDF=325500 MemberID=53 </weight>
<weight id="1102" MUR="1.0" MUF="1.0" PDF="325554" > PDF=325500 MemberID=54 </weight>
<weight id="1103" MUR="1.0" MUF="1.0" PDF="325555" > PDF=325500 MemberID=55 </weight>
<weight id="1104" MUR="1.0" MUF="1.0" PDF="325556" > PDF=325500 MemberID=56 </weight>
<weight id="1105" MUR="1.0" MUF="1.0" PDF="325557" > PDF=325500 MemberID=57 </weight>
<weight id="1106" MUR="1.0" MUF="1.0" PDF="325558" > PDF=325500 MemberID=58 </weight>
<weight id="1107" MUR="1.0" MUF="1.0" PDF="325559" > PDF=325500 MemberID=59 </weight>
<weight id="1108" MUR="1.0" MUF="1.0" PDF="325560" > PDF=325500 MemberID=60 </weight>
<weight id="1109" MUR="1.0" MUF="1.0" PDF="325561" > PDF=325500 MemberID=61 </weight>
<weight id="1110" MUR="1.0" MUF="1.0" PDF="325562" > PDF=325500 MemberID=62 </weight>
<weight id="1111" MUR="1.0" MUF="1.0" PDF="325563" > PDF=325500 MemberID=63 </weight>
<weight id="1112" MUR="1.0" MUF="1.0" PDF="325564" > PDF=325500 MemberID=64 </weight>
<weight id="1113" MUR="1.0" MUF="1.0" PDF="325565" > PDF=325500 MemberID=65 </weight>
<weight id="1114" MUR="1.0" MUF="1.0" PDF="325566" > PDF=325500 MemberID=66 </weight>
<weight id="1115" MUR="1.0" MUF="1.0" PDF="325567" > PDF=325500 MemberID=67 </weight>
<weight id="1116" MUR="1.0" MUF="1.0" PDF="325568" > PDF=325500 MemberID=68 </weight>
<weight id="1117" MUR="1.0" MUF="1.0" PDF="325569" > PDF=325500 MemberID=69 </weight>
<weight id="1118" MUR="1.0" MUF="1.0" PDF="325570" > PDF=325500 MemberID=70 </weight>
<weight id="1119" MUR="1.0" MUF="1.0" PDF="325571" > PDF=325500 MemberID=71 </weight>
<weight id="1120" MUR="1.0" MUF="1.0" PDF="325572" > PDF=325500 MemberID=72 </weight>
<weight id="1121" MUR="1.0" MUF="1.0" PDF="325573" > PDF=325500 MemberID=73 </weight>
<weight id="1122" MUR="1.0" MUF="1.0" PDF="325574" > PDF=325500 MemberID=74 </weight>
<weight id="1123" MUR="1.0" MUF="1.0" PDF="325575" > PDF=325500 MemberID=75 </weight>
<weight id="1124" MUR="1.0" MUF="1.0" PDF="325576" > PDF=325500 MemberID=76 </weight>
<weight id="1125" MUR="1.0" MUF="1.0" PDF="325577" > PDF=325500 MemberID=77 </weight>
<weight id="1126" MUR="1.0" MUF="1.0" PDF="325578" > PDF=325500 MemberID=78 </weight>
<weight id="1127" MUR="1.0" MUF="1.0" PDF="325579" > PDF=325500 MemberID=79 </weight>
<weight id="1128" MUR="1.0" MUF="1.0" PDF="325580" > PDF=325500 MemberID=80 </weight>
<weight id="1129" MUR="1.0" MUF="1.0" PDF="325581" > PDF=325500 MemberID=81 </weight>
<weight id="1130" MUR="1.0" MUF="1.0" PDF="325582" > PDF=325500 MemberID=82 </weight>
<weight id="1131" MUR="1.0" MUF="1.0" PDF="325583" > PDF=325500 MemberID=83 </weight>
<weight id="1132" MUR="1.0" MUF="1.0" PDF="325584" > PDF=325500 MemberID=84 </weight>
<weight id="1133" MUR="1.0" MUF="1.0" PDF="325585" > PDF=325500 MemberID=85 </weight>
<weight id="1134" MUR="1.0" MUF="1.0" PDF="325586" > PDF=325500 MemberID=86 </weight>
<weight id="1135" MUR="1.0" MUF="1.0" PDF="325587" > PDF=325500 MemberID=87 </weight>
<weight id="1136" MUR="1.0" MUF="1.0" PDF="325588" > PDF=325500 MemberID=88 </weight>
<weight id="1137" MUR="1.0" MUF="1.0" PDF="325589" > PDF=325500 MemberID=89 </weight>
<weight id="1138" MUR="1.0" MUF="1.0" PDF="325590" > PDF=325500 MemberID=90 </weight>
<weight id="1139" MUR="1.0" MUF="1.0" PDF="325591" > PDF=325500 MemberID=91 </weight>
<weight id="1140" MUR="1.0" MUF="1.0" PDF="325592" > PDF=325500 MemberID=92 </weight>
<weight id="1141" MUR="1.0" MUF="1.0" PDF="325593" > PDF=325500 MemberID=93 </weight>
<weight id="1142" MUR="1.0" MUF="1.0" PDF="325594" > PDF=325500 MemberID=94 </weight>
<weight id="1143" MUR="1.0" MUF="1.0" PDF="325595" > PDF=325500 MemberID=95 </weight>
<weight id="1144" MUR="1.0" MUF="1.0" PDF="325596" > PDF=325500 MemberID=96 </weight>
<weight id="1145" MUR="1.0" MUF="1.0" PDF="325597" > PDF=325500 MemberID=97 </weight>
<weight id="1146" MUR="1.0" MUF="1.0" PDF="325598" > PDF=325500 MemberID=98 </weight>
<weight id="1147" MUR="1.0" MUF="1.0" PDF="325599" > PDF=325500 MemberID=99 </weight>
<weight id="1148" MUR="1.0" MUF="1.0" PDF="325600" > PDF=325500 MemberID=100 </weight>
</weightgroup> # PDFSET -> PDFSET
<weightgroup name="NNPDF31_nnlo_as_0118_nf_4" combine="replicas"> # 320900: NNPDF3.1 NNLO global fit, nf=4. mem=0 ; average on replicas; mem=1-100 ; PDF replicas
<weight id="1149" MUR="1.0" MUF="1.0" PDF="320900" > PDF=320900 MemberID=0 </weight>
<weight id="1150" MUR="1.0" MUF="1.0" PDF="320901" > PDF=320900 MemberID=1 </weight>
<weight id="1151" MUR="1.0" MUF="1.0" PDF="320902" > PDF=320900 MemberID=2 </weight>
<weight id="1152" MUR="1.0" MUF="1.0" PDF="320903" > PDF=320900 MemberID=3 </weight>
<weight id="1153" MUR="1.0" MUF="1.0" PDF="320904" > PDF=320900 MemberID=4 </weight>
<weight id="1154" MUR="1.0" MUF="1.0" PDF="320905" > PDF=320900 MemberID=5 </weight>
<weight id="1155" MUR="1.0" MUF="1.0" PDF="320906" > PDF=320900 MemberID=6 </weight>
<weight id="1156" MUR="1.0" MUF="1.0" PDF="320907" > PDF=320900 MemberID=7 </weight>
<weight id="1157" MUR="1.0" MUF="1.0" PDF="320908" > PDF=320900 MemberID=8 </weight>
<weight id="1158" MUR="1.0" MUF="1.0" PDF="320909" > PDF=320900 MemberID=9 </weight>
<weight id="1159" MUR="1.0" MUF="1.0" PDF="320910" > PDF=320900 MemberID=10 </weight>
<weight id="1160" MUR="1.0" MUF="1.0" PDF="320911" > PDF=320900 MemberID=11 </weight>
<weight id="1161" MUR="1.0" MUF="1.0" PDF="320912" > PDF=320900 MemberID=12 </weight>
<weight id="1162" MUR="1.0" MUF="1.0" PDF="320913" > PDF=320900 MemberID=13 </weight>
<weight id="1163" MUR="1.0" MUF="1.0" PDF="320914" > PDF=320900 MemberID=14 </weight>
<weight id="1164" MUR="1.0" MUF="1.0" PDF="320915" > PDF=320900 MemberID=15 </weight>
<weight id="1165" MUR="1.0" MUF="1.0" PDF="320916" > PDF=320900 MemberID=16 </weight>
<weight id="1166" MUR="1.0" MUF="1.0" PDF="320917" > PDF=320900 MemberID=17 </weight>
<weight id="1167" MUR="1.0" MUF="1.0" PDF="320918" > PDF=320900 MemberID=18 </weight>
<weight id="1168" MUR="1.0" MUF="1.0" PDF="320919" > PDF=320900 MemberID=19 </weight>
<weight id="1169" MUR="1.0" MUF="1.0" PDF="320920" > PDF=320900 MemberID=20 </weight>
<weight id="1170" MUR="1.0" MUF="1.0" PDF="320921" > PDF=320900 MemberID=21 </weight>
<weight id="1171" MUR="1.0" MUF="1.0" PDF="320922" > PDF=320900 MemberID=22 </weight>
<weight id="1172" MUR="1.0" MUF="1.0" PDF="320923" > PDF=320900 MemberID=23 </weight>
<weight id="1173" MUR="1.0" MUF="1.0" PDF="320924" > PDF=320900 MemberID=24 </weight>
<weight id="1174" MUR="1.0" MUF="1.0" PDF="320925" > PDF=320900 MemberID=25 </weight>
<weight id="1175" MUR="1.0" MUF="1.0" PDF="320926" > PDF=320900 MemberID=26 </weight>
<weight id="1176" MUR="1.0" MUF="1.0" PDF="320927" > PDF=320900 MemberID=27 </weight>
<weight id="1177" MUR="1.0" MUF="1.0" PDF="320928" > PDF=320900 MemberID=28 </weight>
<weight id="1178" MUR="1.0" MUF="1.0" PDF="320929" > PDF=320900 MemberID=29 </weight>
<weight id="1179" MUR="1.0" MUF="1.0" PDF="320930" > PDF=320900 MemberID=30 </weight>
<weight id="1180" MUR="1.0" MUF="1.0" PDF="320931" > PDF=320900 MemberID=31 </weight>
<weight id="1181" MUR="1.0" MUF="1.0" PDF="320932" > PDF=320900 MemberID=32 </weight>
<weight id="1182" MUR="1.0" MUF="1.0" PDF="320933" > PDF=320900 MemberID=33 </weight>
<weight id="1183" MUR="1.0" MUF="1.0" PDF="320934" > PDF=320900 MemberID=34 </weight>
<weight id="1184" MUR="1.0" MUF="1.0" PDF="320935" > PDF=320900 MemberID=35 </weight>
<weight id="1185" MUR="1.0" MUF="1.0" PDF="320936" > PDF=320900 MemberID=36 </weight>
<weight id="1186" MUR="1.0" MUF="1.0" PDF="320937" > PDF=320900 MemberID=37 </weight>
<weight id="1187" MUR="1.0" MUF="1.0" PDF="320938" > PDF=320900 MemberID=38 </weight>
<weight id="1188" MUR="1.0" MUF="1.0" PDF="320939" > PDF=320900 MemberID=39 </weight>
<weight id="1189" MUR="1.0" MUF="1.0" PDF="320940" > PDF=320900 MemberID=40 </weight>
<weight id="1190" MUR="1.0" MUF="1.0" PDF="320941" > PDF=320900 MemberID=41 </weight>
<weight id="1191" MUR="1.0" MUF="1.0" PDF="320942" > PDF=320900 MemberID=42 </weight>
<weight id="1192" MUR="1.0" MUF="1.0" PDF="320943" > PDF=320900 MemberID=43 </weight>
<weight id="1193" MUR="1.0" MUF="1.0" PDF="320944" > PDF=320900 MemberID=44 </weight>
<weight id="1194" MUR="1.0" MUF="1.0" PDF="320945" > PDF=320900 MemberID=45 </weight>
<weight id="1195" MUR="1.0" MUF="1.0" PDF="320946" > PDF=320900 MemberID=46 </weight>
<weight id="1196" MUR="1.0" MUF="1.0" PDF="320947" > PDF=320900 MemberID=47 </weight>
<weight id="1197" MUR="1.0" MUF="1.0" PDF="320948" > PDF=320900 MemberID=48 </weight>
<weight id="1198" MUR="1.0" MUF="1.0" PDF="320949" > PDF=320900 MemberID=49 </weight>
<weight id="1199" MUR="1.0" MUF="1.0" PDF="320950" > PDF=320900 MemberID=50 </weight>
<weight id="1200" MUR="1.0" MUF="1.0" PDF="320951" > PDF=320900 MemberID=51 </weight>
<weight id="1201" MUR="1.0" MUF="1.0" PDF="320952" > PDF=320900 MemberID=52 </weight>
<weight id="1202" MUR="1.0" MUF="1.0" PDF="320953" > PDF=320900 MemberID=53 </weight>
<weight id="1203" MUR="1.0" MUF="1.0" PDF="320954" > PDF=320900 MemberID=54 </weight>
<weight id="1204" MUR="1.0" MUF="1.0" PDF="320955" > PDF=320900 MemberID=55 </weight>
<weight id="1205" MUR="1.0" MUF="1.0" PDF="320956" > PDF=320900 MemberID=56 </weight>
<weight id="1206" MUR="1.0" MUF="1.0" PDF="320957" > PDF=320900 MemberID=57 </weight>
<weight id="1207" MUR="1.0" MUF="1.0" PDF="320958" > PDF=320900 MemberID=58 </weight>
<weight id="1208" MUR="1.0" MUF="1.0" PDF="320959" > PDF=320900 MemberID=59 </weight>
<weight id="1209" MUR="1.0" MUF="1.0" PDF="320960" > PDF=320900 MemberID=60 </weight>
<weight id="1210" MUR="1.0" MUF="1.0" PDF="320961" > PDF=320900 MemberID=61 </weight>
<weight id="1211" MUR="1.0" MUF="1.0" PDF="320962" > PDF=320900 MemberID=62 </weight>
<weight id="1212" MUR="1.0" MUF="1.0" PDF="320963" > PDF=320900 MemberID=63 </weight>
<weight id="1213" MUR="1.0" MUF="1.0" PDF="320964" > PDF=320900 MemberID=64 </weight>
<weight id="1214" MUR="1.0" MUF="1.0" PDF="320965" > PDF=320900 MemberID=65 </weight>
<weight id="1215" MUR="1.0" MUF="1.0" PDF="320966" > PDF=320900 MemberID=66 </weight>
<weight id="1216" MUR="1.0" MUF="1.0" PDF="320967" > PDF=320900 MemberID=67 </weight>
<weight id="1217" MUR="1.0" MUF="1.0" PDF="320968" > PDF=320900 MemberID=68 </weight>
<weight id="1218" MUR="1.0" MUF="1.0" PDF="320969" > PDF=320900 MemberID=69 </weight>
<weight id="1219" MUR="1.0" MUF="1.0" PDF="320970" > PDF=320900 MemberID=70 </weight>
<weight id="1220" MUR="1.0" MUF="1.0" PDF="320971" > PDF=320900 MemberID=71 </weight>
<weight id="1221" MUR="1.0" MUF="1.0" PDF="320972" > PDF=320900 MemberID=72 </weight>
<weight id="1222" MUR="1.0" MUF="1.0" PDF="320973" > PDF=320900 MemberID=73 </weight>
<weight id="1223" MUR="1.0" MUF="1.0" PDF="320974" > PDF=320900 MemberID=74 </weight>
<weight id="1224" MUR="1.0" MUF="1.0" PDF="320975" > PDF=320900 MemberID=75 </weight>
<weight id="1225" MUR="1.0" MUF="1.0" PDF="320976" > PDF=320900 MemberID=76 </weight>
<weight id="1226" MUR="1.0" MUF="1.0" PDF="320977" > PDF=320900 MemberID=77 </weight>
<weight id="1227" MUR="1.0" MUF="1.0" PDF="320978" > PDF=320900 MemberID=78 </weight>
<weight id="1228" MUR="1.0" MUF="1.0" PDF="320979" > PDF=320900 MemberID=79 </weight>
<weight id="1229" MUR="1.0" MUF="1.0" PDF="320980" > PDF=320900 MemberID=80 </weight>
<weight id="1230" MUR="1.0" MUF="1.0" PDF="320981" > PDF=320900 MemberID=81 </weight>
<weight id="1231" MUR="1.0" MUF="1.0" PDF="320982" > PDF=320900 MemberID=82 </weight>
<weight id="1232" MUR="1.0" MUF="1.0" PDF="320983" > PDF=320900 MemberID=83 </weight>
<weight id="1233" MUR="1.0" MUF="1.0" PDF="320984" > PDF=320900 MemberID=84 </weight>
<weight id="1234" MUR="1.0" MUF="1.0" PDF="320985" > PDF=320900 MemberID=85 </weight>
<weight id="1235" MUR="1.0" MUF="1.0" PDF="320986" > PDF=320900 MemberID=86 </weight>
<weight id="1236" MUR="1.0" MUF="1.0" PDF="320987" > PDF=320900 MemberID=87 </weight>
<weight id="1237" MUR="1.0" MUF="1.0" PDF="320988" > PDF=320900 MemberID=88 </weight>
<weight id="1238" MUR="1.0" MUF="1.0" PDF="320989" > PDF=320900 MemberID=89 </weight>
<weight id="1239" MUR="1.0" MUF="1.0" PDF="320990" > PDF=320900 MemberID=90 </weight>
<weight id="1240" MUR="1.0" MUF="1.0" PDF="320991" > PDF=320900 MemberID=91 </weight>
<weight id="1241" MUR="1.0" MUF="1.0" PDF="320992" > PDF=320900 MemberID=92 </weight>
<weight id="1242" MUR="1.0" MUF="1.0" PDF="320993" > PDF=320900 MemberID=93 </weight>
<weight id="1243" MUR="1.0" MUF="1.0" PDF="320994" > PDF=320900 MemberID=94 </weight>
<weight id="1244" MUR="1.0" MUF="1.0" PDF="320995" > PDF=320900 MemberID=95 </weight>
<weight id="1245" MUR="1.0" MUF="1.0" PDF="320996" > PDF=320900 MemberID=96 </weight>
<weight id="1246" MUR="1.0" MUF="1.0" PDF="320997" > PDF=320900 MemberID=97 </weight>
<weight id="1247" MUR="1.0" MUF="1.0" PDF="320998" > PDF=320900 MemberID=98 </weight>
<weight id="1248" MUR="1.0" MUF="1.0" PDF="320999" > PDF=320900 MemberID=99 </weight>
<weight id="1249" MUR="1.0" MUF="1.0" PDF="321000" > PDF=320900 MemberID=100 </weight>
</weightgroup> # PDFSET -> PDFSET
<weightgroup name="CT10nlo_nf4" combine="unknown"> # 11082: CT10 NLO PDF fixed 4-flavour fits using the standard CTEQ PDF evolution but using the HOPPET alphas_s running solution. NEW CT12 grid type. Excluding the D0 Run-II W asymmetry data. mem=0 ; mem=0 ; NF4 high scale Q=m_Z=91.190 GeV; mem=1 ; NF4 low scale  Q=m_tau=1.778 GeV
<weight id="1250" MUR="1.0" MUF="1.0" PDF="11082" > PDF=11082 MemberID=0 </weight>
<weight id="1251" MUR="1.0" MUF="1.0" PDF="11083" > PDF=11082 MemberID=1 </weight>
</weightgroup> # PDFSET -> PDF
<weight id="1252" MUR="1.0" MUF="1.0" PDF="13091" > PDF=13091 MemberID=0 </weight>
<weight id="1253" MUR="1.0" MUF="1.0" PDF="13191" > PDF=13191 MemberID=0 </weight>
<weight id="1254" MUR="1.0" MUF="1.0" PDF="13202" > PDF=13202 MemberID=0 </weight>
<weightgroup name="MSTW2008lo68cl_nf4" combine="hessian"> # 23100: MSTW 2008 LO (68% C.L.) evolved with 4 flavours maximum.  This set has 41 member PDFs.  mem=0 ; central value; mem=1-40 ; 20 eigenvectors (+/- directions).  http://mstwpdf.hepforge.org
<weight id="1255" MUR="1.0" MUF="1.0" PDF="23100" > PDF=23100 MemberID=0 </weight>
<weight id="1256" MUR="1.0" MUF="1.0" PDF="23101" > PDF=23100 MemberID=1 </weight>
<weight id="1257" MUR="1.0" MUF="1.0" PDF="23102" > PDF=23100 MemberID=2 </weight>
<weight id="1258" MUR="1.0" MUF="1.0" PDF="23103" > PDF=23100 MemberID=3 </weight>
<weight id="1259" MUR="1.0" MUF="1.0" PDF="23104" > PDF=23100 MemberID=4 </weight>
<weight id="1260" MUR="1.0" MUF="1.0" PDF="23105" > PDF=23100 MemberID=5 </weight>
<weight id="1261" MUR="1.0" MUF="1.0" PDF="23106" > PDF=23100 MemberID=6 </weight>
<weight id="1262" MUR="1.0" MUF="1.0" PDF="23107" > PDF=23100 MemberID=7 </weight>
<weight id="1263" MUR="1.0" MUF="1.0" PDF="23108" > PDF=23100 MemberID=8 </weight>
<weight id="1264" MUR="1.0" MUF="1.0" PDF="23109" > PDF=23100 MemberID=9 </weight>
<weight id="1265" MUR="1.0" MUF="1.0" PDF="23110" > PDF=23100 MemberID=10 </weight>
<weight id="1266" MUR="1.0" MUF="1.0" PDF="23111" > PDF=23100 MemberID=11 </weight>
<weight id="1267" MUR="1.0" MUF="1.0" PDF="23112" > PDF=23100 MemberID=12 </weight>
<weight id="1268" MUR="1.0" MUF="1.0" PDF="23113" > PDF=23100 MemberID=13 </weight>
<weight id="1269" MUR="1.0" MUF="1.0" PDF="23114" > PDF=23100 MemberID=14 </weight>
<weight id="1270" MUR="1.0" MUF="1.0" PDF="23115" > PDF=23100 MemberID=15 </weight>
<weight id="1271" MUR="1.0" MUF="1.0" PDF="23116" > PDF=23100 MemberID=16 </weight>
<weight id="1272" MUR="1.0" MUF="1.0" PDF="23117" > PDF=23100 MemberID=17 </weight>
<weight id="1273" MUR="1.0" MUF="1.0" PDF="23118" > PDF=23100 MemberID=18 </weight>
<weight id="1274" MUR="1.0" MUF="1.0" PDF="23119" > PDF=23100 MemberID=19 </weight>
<weight id="1275" MUR="1.0" MUF="1.0" PDF="23120" > PDF=23100 MemberID=20 </weight>
<weight id="1276" MUR="1.0" MUF="1.0" PDF="23121" > PDF=23100 MemberID=21 </weight>
<weight id="1277" MUR="1.0" MUF="1.0" PDF="23122" > PDF=23100 MemberID=22 </weight>
<weight id="1278" MUR="1.0" MUF="1.0" PDF="23123" > PDF=23100 MemberID=23 </weight>
<weight id="1279" MUR="1.0" MUF="1.0" PDF="23124" > PDF=23100 MemberID=24 </weight>
<weight id="1280" MUR="1.0" MUF="1.0" PDF="23125" > PDF=23100 MemberID=25 </weight>
<weight id="1281" MUR="1.0" MUF="1.0" PDF="23126" > PDF=23100 MemberID=26 </weight>
<weight id="1282" MUR="1.0" MUF="1.0" PDF="23127" > PDF=23100 MemberID=27 </weight>
<weight id="1283" MUR="1.0" MUF="1.0" PDF="23128" > PDF=23100 MemberID=28 </weight>
<weight id="1284" MUR="1.0" MUF="1.0" PDF="23129" > PDF=23100 MemberID=29 </weight>
<weight id="1285" MUR="1.0" MUF="1.0" PDF="23130" > PDF=23100 MemberID=30 </weight>
<weight id="1286" MUR="1.0" MUF="1.0" PDF="23131" > PDF=23100 MemberID=31 </weight>
<weight id="1287" MUR="1.0" MUF="1.0" PDF="23132" > PDF=23100 MemberID=32 </weight>
<weight id="1288" MUR="1.0" MUF="1.0" PDF="23133" > PDF=23100 MemberID=33 </weight>
<weight id="1289" MUR="1.0" MUF="1.0" PDF="23134" > PDF=23100 MemberID=34 </weight>
<weight id="1290" MUR="1.0" MUF="1.0" PDF="23135" > PDF=23100 MemberID=35 </weight>
<weight id="1291" MUR="1.0" MUF="1.0" PDF="23136" > PDF=23100 MemberID=36 </weight>
<weight id="1292" MUR="1.0" MUF="1.0" PDF="23137" > PDF=23100 MemberID=37 </weight>
<weight id="1293" MUR="1.0" MUF="1.0" PDF="23138" > PDF=23100 MemberID=38 </weight>
<weight id="1294" MUR="1.0" MUF="1.0" PDF="23139" > PDF=23100 MemberID=39 </weight>
<weight id="1295" MUR="1.0" MUF="1.0" PDF="23140" > PDF=23100 MemberID=40 </weight>
</weightgroup> # PDFSET -> PDFSET
<weightgroup name="MSTW2008nlo68cl_nf4" combine="hessian"> # 23300: MSTW 2008 NLO (68% C.L.) evolved with 4 flavours maximum.  This set has 41 member PDFs.  mem=0 ; central value; mem=1-40 ; 20 eigenvectors (+/- directions).  http://mstwpdf.hepforge.org
<weight id="1296" MUR="1.0" MUF="1.0" PDF="23300" > PDF=23300 MemberID=0 </weight>
<weight id="1297" MUR="1.0" MUF="1.0" PDF="23301" > PDF=23300 MemberID=1 </weight>
<weight id="1298" MUR="1.0" MUF="1.0" PDF="23302" > PDF=23300 MemberID=2 </weight>
<weight id="1299" MUR="1.0" MUF="1.0" PDF="23303" > PDF=23300 MemberID=3 </weight>
<weight id="1300" MUR="1.0" MUF="1.0" PDF="23304" > PDF=23300 MemberID=4 </weight>
<weight id="1301" MUR="1.0" MUF="1.0" PDF="23305" > PDF=23300 MemberID=5 </weight>
<weight id="1302" MUR="1.0" MUF="1.0" PDF="23306" > PDF=23300 MemberID=6 </weight>
<weight id="1303" MUR="1.0" MUF="1.0" PDF="23307" > PDF=23300 MemberID=7 </weight>
<weight id="1304" MUR="1.0" MUF="1.0" PDF="23308" > PDF=23300 MemberID=8 </weight>
<weight id="1305" MUR="1.0" MUF="1.0" PDF="23309" > PDF=23300 MemberID=9 </weight>
<weight id="1306" MUR="1.0" MUF="1.0" PDF="23310" > PDF=23300 MemberID=10 </weight>
<weight id="1307" MUR="1.0" MUF="1.0" PDF="23311" > PDF=23300 MemberID=11 </weight>
<weight id="1308" MUR="1.0" MUF="1.0" PDF="23312" > PDF=23300 MemberID=12 </weight>
<weight id="1309" MUR="1.0" MUF="1.0" PDF="23313" > PDF=23300 MemberID=13 </weight>
<weight id="1310" MUR="1.0" MUF="1.0" PDF="23314" > PDF=23300 MemberID=14 </weight>
<weight id="1311" MUR="1.0" MUF="1.0" PDF="23315" > PDF=23300 MemberID=15 </weight>
<weight id="1312" MUR="1.0" MUF="1.0" PDF="23316" > PDF=23300 MemberID=16 </weight>
<weight id="1313" MUR="1.0" MUF="1.0" PDF="23317" > PDF=23300 MemberID=17 </weight>
<weight id="1314" MUR="1.0" MUF="1.0" PDF="23318" > PDF=23300 MemberID=18 </weight>
<weight id="1315" MUR="1.0" MUF="1.0" PDF="23319" > PDF=23300 MemberID=19 </weight>
<weight id="1316" MUR="1.0" MUF="1.0" PDF="23320" > PDF=23300 MemberID=20 </weight>
<weight id="1317" MUR="1.0" MUF="1.0" PDF="23321" > PDF=23300 MemberID=21 </weight>
<weight id="1318" MUR="1.0" MUF="1.0" PDF="23322" > PDF=23300 MemberID=22 </weight>
<weight id="1319" MUR="1.0" MUF="1.0" PDF="23323" > PDF=23300 MemberID=23 </weight>
<weight id="1320" MUR="1.0" MUF="1.0" PDF="23324" > PDF=23300 MemberID=24 </weight>
<weight id="1321" MUR="1.0" MUF="1.0" PDF="23325" > PDF=23300 MemberID=25 </weight>
<weight id="1322" MUR="1.0" MUF="1.0" PDF="23326" > PDF=23300 MemberID=26 </weight>
<weight id="1323" MUR="1.0" MUF="1.0" PDF="23327" > PDF=23300 MemberID=27 </weight>
<weight id="1324" MUR="1.0" MUF="1.0" PDF="23328" > PDF=23300 MemberID=28 </weight>
<weight id="1325" MUR="1.0" MUF="1.0" PDF="23329" > PDF=23300 MemberID=29 </weight>
<weight id="1326" MUR="1.0" MUF="1.0" PDF="23330" > PDF=23300 MemberID=30 </weight>
<weight id="1327" MUR="1.0" MUF="1.0" PDF="23331" > PDF=23300 MemberID=31 </weight>
<weight id="1328" MUR="1.0" MUF="1.0" PDF="23332" > PDF=23300 MemberID=32 </weight>
<weight id="1329" MUR="1.0" MUF="1.0" PDF="23333" > PDF=23300 MemberID=33 </weight>
<weight id="1330" MUR="1.0" MUF="1.0" PDF="23334" > PDF=23300 MemberID=34 </weight>
<weight id="1331" MUR="1.0" MUF="1.0" PDF="23335" > PDF=23300 MemberID=35 </weight>
<weight id="1332" MUR="1.0" MUF="1.0" PDF="23336" > PDF=23300 MemberID=36 </weight>
<weight id="1333" MUR="1.0" MUF="1.0" PDF="23337" > PDF=23300 MemberID=37 </weight>
<weight id="1334" MUR="1.0" MUF="1.0" PDF="23338" > PDF=23300 MemberID=38 </weight>
<weight id="1335" MUR="1.0" MUF="1.0" PDF="23339" > PDF=23300 MemberID=39 </weight>
<weight id="1336" MUR="1.0" MUF="1.0" PDF="23340" > PDF=23300 MemberID=40 </weight>
</weightgroup> # PDFSET -> PDFSET
<weightgroup name="MSTW2008nlo_mbrange_nf4" combine="unknown"> # 23490: MSTW 2008 NLO (fits for range of m_b values, evolve with 4 flavours maximum).  This set has 7 member PDFs.  mem=0 ; default m_b = 4.75 GeV; mem=1-6 ; m_b = 4.00, 4.25, 4.50, 5.00, 5.25, 5.50 GeV.  http://mstwpdf.hepforge.org
<weight id="1337" MUR="1.0" MUF="1.0" PDF="23490" > PDF=23490 MemberID=0 </weight>
<weight id="1338" MUR="1.0" MUF="1.0" PDF="23491" > PDF=23490 MemberID=1 </weight>
<weight id="1339" MUR="1.0" MUF="1.0" PDF="23492" > PDF=23490 MemberID=2 </weight>
<weight id="1340" MUR="1.0" MUF="1.0" PDF="23493" > PDF=23490 MemberID=3 </weight>
<weight id="1341" MUR="1.0" MUF="1.0" PDF="23494" > PDF=23490 MemberID=4 </weight>
<weight id="1342" MUR="1.0" MUF="1.0" PDF="23495" > PDF=23490 MemberID=5 </weight>
<weight id="1343" MUR="1.0" MUF="1.0" PDF="23496" > PDF=23490 MemberID=6 </weight>
</weightgroup> # PDFSET -> PDFSET
<weightgroup name="MSTW2008nnlo68cl_nf4" combine="hessian"> # 23600: MSTW 2008 NNLO (68% C.L.) evolved with 4 flavours maximum.  This set has 41 member PDFs.  mem=0 ; central value; mem=1-40 ; 20 eigenvectors (+/- directions).  http://mstwpdf.hepforge.org
<weight id="1344" MUR="1.0" MUF="1.0" PDF="23600" > PDF=23600 MemberID=0 </weight>
<weight id="1345" MUR="1.0" MUF="1.0" PDF="23601" > PDF=23600 MemberID=1 </weight>
<weight id="1346" MUR="1.0" MUF="1.0" PDF="23602" > PDF=23600 MemberID=2 </weight>
<weight id="1347" MUR="1.0" MUF="1.0" PDF="23603" > PDF=23600 MemberID=3 </weight>
<weight id="1348" MUR="1.0" MUF="1.0" PDF="23604" > PDF=23600 MemberID=4 </weight>
<weight id="1349" MUR="1.0" MUF="1.0" PDF="23605" > PDF=23600 MemberID=5 </weight>
<weight id="1350" MUR="1.0" MUF="1.0" PDF="23606" > PDF=23600 MemberID=6 </weight>
<weight id="1351" MUR="1.0" MUF="1.0" PDF="23607" > PDF=23600 MemberID=7 </weight>
<weight id="1352" MUR="1.0" MUF="1.0" PDF="23608" > PDF=23600 MemberID=8 </weight>
<weight id="1353" MUR="1.0" MUF="1.0" PDF="23609" > PDF=23600 MemberID=9 </weight>
<weight id="1354" MUR="1.0" MUF="1.0" PDF="23610" > PDF=23600 MemberID=10 </weight>
<weight id="1355" MUR="1.0" MUF="1.0" PDF="23611" > PDF=23600 MemberID=11 </weight>
<weight id="1356" MUR="1.0" MUF="1.0" PDF="23612" > PDF=23600 MemberID=12 </weight>
<weight id="1357" MUR="1.0" MUF="1.0" PDF="23613" > PDF=23600 MemberID=13 </weight>
<weight id="1358" MUR="1.0" MUF="1.0" PDF="23614" > PDF=23600 MemberID=14 </weight>
<weight id="1359" MUR="1.0" MUF="1.0" PDF="23615" > PDF=23600 MemberID=15 </weight>
<weight id="1360" MUR="1.0" MUF="1.0" PDF="23616" > PDF=23600 MemberID=16 </weight>
<weight id="1361" MUR="1.0" MUF="1.0" PDF="23617" > PDF=23600 MemberID=17 </weight>
<weight id="1362" MUR="1.0" MUF="1.0" PDF="23618" > PDF=23600 MemberID=18 </weight>
<weight id="1363" MUR="1.0" MUF="1.0" PDF="23619" > PDF=23600 MemberID=19 </weight>
<weight id="1364" MUR="1.0" MUF="1.0" PDF="23620" > PDF=23600 MemberID=20 </weight>
<weight id="1365" MUR="1.0" MUF="1.0" PDF="23621" > PDF=23600 MemberID=21 </weight>
<weight id="1366" MUR="1.0" MUF="1.0" PDF="23622" > PDF=23600 MemberID=22 </weight>
<weight id="1367" MUR="1.0" MUF="1.0" PDF="23623" > PDF=23600 MemberID=23 </weight>
<weight id="1368" MUR="1.0" MUF="1.0" PDF="23624" > PDF=23600 MemberID=24 </weight>
<weight id="1369" MUR="1.0" MUF="1.0" PDF="23625" > PDF=23600 MemberID=25 </weight>
<weight id="1370" MUR="1.0" MUF="1.0" PDF="23626" > PDF=23600 MemberID=26 </weight>
<weight id="1371" MUR="1.0" MUF="1.0" PDF="23627" > PDF=23600 MemberID=27 </weight>
<weight id="1372" MUR="1.0" MUF="1.0" PDF="23628" > PDF=23600 MemberID=28 </weight>
<weight id="1373" MUR="1.0" MUF="1.0" PDF="23629" > PDF=23600 MemberID=29 </weight>
<weight id="1374" MUR="1.0" MUF="1.0" PDF="23630" > PDF=23600 MemberID=30 </weight>
<weight id="1375" MUR="1.0" MUF="1.0" PDF="23631" > PDF=23600 MemberID=31 </weight>
<weight id="1376" MUR="1.0" MUF="1.0" PDF="23632" > PDF=23600 MemberID=32 </weight>
<weight id="1377" MUR="1.0" MUF="1.0" PDF="23633" > PDF=23600 MemberID=33 </weight>
<weight id="1378" MUR="1.0" MUF="1.0" PDF="23634" > PDF=23600 MemberID=34 </weight>
<weight id="1379" MUR="1.0" MUF="1.0" PDF="23635" > PDF=23600 MemberID=35 </weight>
<weight id="1380" MUR="1.0" MUF="1.0" PDF="23636" > PDF=23600 MemberID=36 </weight>
<weight id="1381" MUR="1.0" MUF="1.0" PDF="23637" > PDF=23600 MemberID=37 </weight>
<weight id="1382" MUR="1.0" MUF="1.0" PDF="23638" > PDF=23600 MemberID=38 </weight>
<weight id="1383" MUR="1.0" MUF="1.0" PDF="23639" > PDF=23600 MemberID=39 </weight>
<weight id="1384" MUR="1.0" MUF="1.0" PDF="23640" > PDF=23600 MemberID=40 </weight>
</weightgroup> # PDFSET -> PDFSET
<weightgroup name="MSTW2008nnlo_mbrange_nf4" combine="unknown"> # 23790: MSTW 2008 NNLO (fits for range of m_b values, evolve with 4 flavours maximum).  This set has 7 member PDFs.  mem=0 ; default m_b = 4.75 GeV; mem=1-6 ; m_b = 4.00, 4.25, 4.50, 5.00, 5.25, 5.50 GeV.  http://mstwpdf.hepforge.org
<weight id="1385" MUR="1.0" MUF="1.0" PDF="23790" > PDF=23790 MemberID=0 </weight>
<weight id="1386" MUR="1.0" MUF="1.0" PDF="23791" > PDF=23790 MemberID=1 </weight>
<weight id="1387" MUR="1.0" MUF="1.0" PDF="23792" > PDF=23790 MemberID=2 </weight>
<weight id="1388" MUR="1.0" MUF="1.0" PDF="23793" > PDF=23790 MemberID=3 </weight>
<weight id="1389" MUR="1.0" MUF="1.0" PDF="23794" > PDF=23790 MemberID=4 </weight>
<weight id="1390" MUR="1.0" MUF="1.0" PDF="23795" > PDF=23790 MemberID=5 </weight>
<weight id="1391" MUR="1.0" MUF="1.0" PDF="23796" > PDF=23790 MemberID=6 </weight>
</weightgroup> # PDFSET -> PDFSET
<weightgroup name="MMHT2014nlo68cl_nf4" combine="hessian"> # 25410: MMHT 2014 NLO (68% C.L.): evolve with 4 flavours maximum. This set has 51 member PDFs. mem=0 --.gt. central value; mem=1-50 --.gt. 20 eigenvector sets (+/- directions). Website: www.hep.ucl.ac.uk/mmht
<weight id="1392" MUR="1.0" MUF="1.0" PDF="25410" > PDF=25410 MemberID=0 </weight>
<weight id="1393" MUR="1.0" MUF="1.0" PDF="25411" > PDF=25410 MemberID=1 </weight>
<weight id="1394" MUR="1.0" MUF="1.0" PDF="25412" > PDF=25410 MemberID=2 </weight>
<weight id="1395" MUR="1.0" MUF="1.0" PDF="25413" > PDF=25410 MemberID=3 </weight>
<weight id="1396" MUR="1.0" MUF="1.0" PDF="25414" > PDF=25410 MemberID=4 </weight>
<weight id="1397" MUR="1.0" MUF="1.0" PDF="25415" > PDF=25410 MemberID=5 </weight>
<weight id="1398" MUR="1.0" MUF="1.0" PDF="25416" > PDF=25410 MemberID=6 </weight>
<weight id="1399" MUR="1.0" MUF="1.0" PDF="25417" > PDF=25410 MemberID=7 </weight>
<weight id="1400" MUR="1.0" MUF="1.0" PDF="25418" > PDF=25410 MemberID=8 </weight>
<weight id="1401" MUR="1.0" MUF="1.0" PDF="25419" > PDF=25410 MemberID=9 </weight>
<weight id="1402" MUR="1.0" MUF="1.0" PDF="25420" > PDF=25410 MemberID=10 </weight>
<weight id="1403" MUR="1.0" MUF="1.0" PDF="25421" > PDF=25410 MemberID=11 </weight>
<weight id="1404" MUR="1.0" MUF="1.0" PDF="25422" > PDF=25410 MemberID=12 </weight>
<weight id="1405" MUR="1.0" MUF="1.0" PDF="25423" > PDF=25410 MemberID=13 </weight>
<weight id="1406" MUR="1.0" MUF="1.0" PDF="25424" > PDF=25410 MemberID=14 </weight>
<weight id="1407" MUR="1.0" MUF="1.0" PDF="25425" > PDF=25410 MemberID=15 </weight>
<weight id="1408" MUR="1.0" MUF="1.0" PDF="25426" > PDF=25410 MemberID=16 </weight>
<weight id="1409" MUR="1.0" MUF="1.0" PDF="25427" > PDF=25410 MemberID=17 </weight>
<weight id="1410" MUR="1.0" MUF="1.0" PDF="25428" > PDF=25410 MemberID=18 </weight>
<weight id="1411" MUR="1.0" MUF="1.0" PDF="25429" > PDF=25410 MemberID=19 </weight>
<weight id="1412" MUR="1.0" MUF="1.0" PDF="25430" > PDF=25410 MemberID=20 </weight>
<weight id="1413" MUR="1.0" MUF="1.0" PDF="25431" > PDF=25410 MemberID=21 </weight>
<weight id="1414" MUR="1.0" MUF="1.0" PDF="25432" > PDF=25410 MemberID=22 </weight>
<weight id="1415" MUR="1.0" MUF="1.0" PDF="25433" > PDF=25410 MemberID=23 </weight>
<weight id="1416" MUR="1.0" MUF="1.0" PDF="25434" > PDF=25410 MemberID=24 </weight>
<weight id="1417" MUR="1.0" MUF="1.0" PDF="25435" > PDF=25410 MemberID=25 </weight>
<weight id="1418" MUR="1.0" MUF="1.0" PDF="25436" > PDF=25410 MemberID=26 </weight>
<weight id="1419" MUR="1.0" MUF="1.0" PDF="25437" > PDF=25410 MemberID=27 </weight>
<weight id="1420" MUR="1.0" MUF="1.0" PDF="25438" > PDF=25410 MemberID=28 </weight>
<weight id="1421" MUR="1.0" MUF="1.0" PDF="25439" > PDF=25410 MemberID=29 </weight>
<weight id="1422" MUR="1.0" MUF="1.0" PDF="25440" > PDF=25410 MemberID=30 </weight>
<weight id="1423" MUR="1.0" MUF="1.0" PDF="25441" > PDF=25410 MemberID=31 </weight>
<weight id="1424" MUR="1.0" MUF="1.0" PDF="25442" > PDF=25410 MemberID=32 </weight>
<weight id="1425" MUR="1.0" MUF="1.0" PDF="25443" > PDF=25410 MemberID=33 </weight>
<weight id="1426" MUR="1.0" MUF="1.0" PDF="25444" > PDF=25410 MemberID=34 </weight>
<weight id="1427" MUR="1.0" MUF="1.0" PDF="25445" > PDF=25410 MemberID=35 </weight>
<weight id="1428" MUR="1.0" MUF="1.0" PDF="25446" > PDF=25410 MemberID=36 </weight>
<weight id="1429" MUR="1.0" MUF="1.0" PDF="25447" > PDF=25410 MemberID=37 </weight>
<weight id="1430" MUR="1.0" MUF="1.0" PDF="25448" > PDF=25410 MemberID=38 </weight>
<weight id="1431" MUR="1.0" MUF="1.0" PDF="25449" > PDF=25410 MemberID=39 </weight>
<weight id="1432" MUR="1.0" MUF="1.0" PDF="25450" > PDF=25410 MemberID=40 </weight>
<weight id="1433" MUR="1.0" MUF="1.0" PDF="25451" > PDF=25410 MemberID=41 </weight>
<weight id="1434" MUR="1.0" MUF="1.0" PDF="25452" > PDF=25410 MemberID=42 </weight>
<weight id="1435" MUR="1.0" MUF="1.0" PDF="25453" > PDF=25410 MemberID=43 </weight>
<weight id="1436" MUR="1.0" MUF="1.0" PDF="25454" > PDF=25410 MemberID=44 </weight>
<weight id="1437" MUR="1.0" MUF="1.0" PDF="25455" > PDF=25410 MemberID=45 </weight>
<weight id="1438" MUR="1.0" MUF="1.0" PDF="25456" > PDF=25410 MemberID=46 </weight>
<weight id="1439" MUR="1.0" MUF="1.0" PDF="25457" > PDF=25410 MemberID=47 </weight>
<weight id="1440" MUR="1.0" MUF="1.0" PDF="25458" > PDF=25410 MemberID=48 </weight>
<weight id="1441" MUR="1.0" MUF="1.0" PDF="25459" > PDF=25410 MemberID=49 </weight>
<weight id="1442" MUR="1.0" MUF="1.0" PDF="25460" > PDF=25410 MemberID=50 </weight>
</weightgroup> # PDFSET -> PDFSET
<weightgroup name="MMHT2014nlo68clas118_nf4" combine="hessian"> # 25510: MMHT 2014 NLO (68% C.L.): evolve with 4 flavours maximum. This set has 51 member PDFs. mem=0 --.gt. central value; mem=1-50 --.gt. 20 eigenvector sets (+/- directions). Website: www.hep.ucl.ac.uk/mmht
<weight id="1443" MUR="1.0" MUF="1.0" PDF="25510" > PDF=25510 MemberID=0 </weight>
<weight id="1444" MUR="1.0" MUF="1.0" PDF="25511" > PDF=25510 MemberID=1 </weight>
<weight id="1445" MUR="1.0" MUF="1.0" PDF="25512" > PDF=25510 MemberID=2 </weight>
<weight id="1446" MUR="1.0" MUF="1.0" PDF="25513" > PDF=25510 MemberID=3 </weight>
<weight id="1447" MUR="1.0" MUF="1.0" PDF="25514" > PDF=25510 MemberID=4 </weight>
<weight id="1448" MUR="1.0" MUF="1.0" PDF="25515" > PDF=25510 MemberID=5 </weight>
<weight id="1449" MUR="1.0" MUF="1.0" PDF="25516" > PDF=25510 MemberID=6 </weight>
<weight id="1450" MUR="1.0" MUF="1.0" PDF="25517" > PDF=25510 MemberID=7 </weight>
<weight id="1451" MUR="1.0" MUF="1.0" PDF="25518" > PDF=25510 MemberID=8 </weight>
<weight id="1452" MUR="1.0" MUF="1.0" PDF="25519" > PDF=25510 MemberID=9 </weight>
<weight id="1453" MUR="1.0" MUF="1.0" PDF="25520" > PDF=25510 MemberID=10 </weight>
<weight id="1454" MUR="1.0" MUF="1.0" PDF="25521" > PDF=25510 MemberID=11 </weight>
<weight id="1455" MUR="1.0" MUF="1.0" PDF="25522" > PDF=25510 MemberID=12 </weight>
<weight id="1456" MUR="1.0" MUF="1.0" PDF="25523" > PDF=25510 MemberID=13 </weight>
<weight id="1457" MUR="1.0" MUF="1.0" PDF="25524" > PDF=25510 MemberID=14 </weight>
<weight id="1458" MUR="1.0" MUF="1.0" PDF="25525" > PDF=25510 MemberID=15 </weight>
<weight id="1459" MUR="1.0" MUF="1.0" PDF="25526" > PDF=25510 MemberID=16 </weight>
<weight id="1460" MUR="1.0" MUF="1.0" PDF="25527" > PDF=25510 MemberID=17 </weight>
<weight id="1461" MUR="1.0" MUF="1.0" PDF="25528" > PDF=25510 MemberID=18 </weight>
<weight id="1462" MUR="1.0" MUF="1.0" PDF="25529" > PDF=25510 MemberID=19 </weight>
<weight id="1463" MUR="1.0" MUF="1.0" PDF="25530" > PDF=25510 MemberID=20 </weight>
<weight id="1464" MUR="1.0" MUF="1.0" PDF="25531" > PDF=25510 MemberID=21 </weight>
<weight id="1465" MUR="1.0" MUF="1.0" PDF="25532" > PDF=25510 MemberID=22 </weight>
<weight id="1466" MUR="1.0" MUF="1.0" PDF="25533" > PDF=25510 MemberID=23 </weight>
<weight id="1467" MUR="1.0" MUF="1.0" PDF="25534" > PDF=25510 MemberID=24 </weight>
<weight id="1468" MUR="1.0" MUF="1.0" PDF="25535" > PDF=25510 MemberID=25 </weight>
<weight id="1469" MUR="1.0" MUF="1.0" PDF="25536" > PDF=25510 MemberID=26 </weight>
<weight id="1470" MUR="1.0" MUF="1.0" PDF="25537" > PDF=25510 MemberID=27 </weight>
<weight id="1471" MUR="1.0" MUF="1.0" PDF="25538" > PDF=25510 MemberID=28 </weight>
<weight id="1472" MUR="1.0" MUF="1.0" PDF="25539" > PDF=25510 MemberID=29 </weight>
<weight id="1473" MUR="1.0" MUF="1.0" PDF="25540" > PDF=25510 MemberID=30 </weight>
<weight id="1474" MUR="1.0" MUF="1.0" PDF="25541" > PDF=25510 MemberID=31 </weight>
<weight id="1475" MUR="1.0" MUF="1.0" PDF="25542" > PDF=25510 MemberID=32 </weight>
<weight id="1476" MUR="1.0" MUF="1.0" PDF="25543" > PDF=25510 MemberID=33 </weight>
<weight id="1477" MUR="1.0" MUF="1.0" PDF="25544" > PDF=25510 MemberID=34 </weight>
<weight id="1478" MUR="1.0" MUF="1.0" PDF="25545" > PDF=25510 MemberID=35 </weight>
<weight id="1479" MUR="1.0" MUF="1.0" PDF="25546" > PDF=25510 MemberID=36 </weight>
<weight id="1480" MUR="1.0" MUF="1.0" PDF="25547" > PDF=25510 MemberID=37 </weight>
<weight id="1481" MUR="1.0" MUF="1.0" PDF="25548" > PDF=25510 MemberID=38 </weight>
<weight id="1482" MUR="1.0" MUF="1.0" PDF="25549" > PDF=25510 MemberID=39 </weight>
<weight id="1483" MUR="1.0" MUF="1.0" PDF="25550" > PDF=25510 MemberID=40 </weight>
<weight id="1484" MUR="1.0" MUF="1.0" PDF="25551" > PDF=25510 MemberID=41 </weight>
<weight id="1485" MUR="1.0" MUF="1.0" PDF="25552" > PDF=25510 MemberID=42 </weight>
<weight id="1486" MUR="1.0" MUF="1.0" PDF="25553" > PDF=25510 MemberID=43 </weight>
<weight id="1487" MUR="1.0" MUF="1.0" PDF="25554" > PDF=25510 MemberID=44 </weight>
<weight id="1488" MUR="1.0" MUF="1.0" PDF="25555" > PDF=25510 MemberID=45 </weight>
<weight id="1489" MUR="1.0" MUF="1.0" PDF="25556" > PDF=25510 MemberID=46 </weight>
<weight id="1490" MUR="1.0" MUF="1.0" PDF="25557" > PDF=25510 MemberID=47 </weight>
<weight id="1491" MUR="1.0" MUF="1.0" PDF="25558" > PDF=25510 MemberID=48 </weight>
<weight id="1492" MUR="1.0" MUF="1.0" PDF="25559" > PDF=25510 MemberID=49 </weight>
<weight id="1493" MUR="1.0" MUF="1.0" PDF="25560" > PDF=25510 MemberID=50 </weight>
</weightgroup> # PDFSET -> PDFSET
<weightgroup name="MMHT2014nlo_asmzsmallrange_nf4" combine="unknown"> # 25570: MMHT 2014 NLO (fits for range of alpha_S values, evolve with 4 flavours maximum). This set has 5 member PDFs. mem=0 --.gt. best-fit alpha_S(M_Z) = 0.120; mem=1-4 --.gt. alpha_S(M_Z) = 0.117,...,0.121. Website: www.hep.ucl.ac.uk/mmht
<weight id="1494" MUR="1.0" MUF="1.0" PDF="25570" > PDF=25570 MemberID=0 </weight>
<weight id="1495" MUR="1.0" MUF="1.0" PDF="25571" > PDF=25570 MemberID=1 </weight>
<weight id="1496" MUR="1.0" MUF="1.0" PDF="25572" > PDF=25570 MemberID=2 </weight>
<weight id="1497" MUR="1.0" MUF="1.0" PDF="25573" > PDF=25570 MemberID=3 </weight>
<weight id="1498" MUR="1.0" MUF="1.0" PDF="25574" > PDF=25570 MemberID=4 </weight>
</weightgroup> # PDFSET -> PDFSET
<weightgroup name="MMHT2014nlo_mcrange_nf4" combine="unknown"> # 25605: MMHT 2014 NLO (range of mc, evolve with 4 flavours maximum). This set has 9 member PDFs. mem=0 --.gt. default mc = 1.40 GeV; mem=1-8 --.gt. mc = 1.15 - 1.55 GeV in steps of 0.05 GeV. Website: www.hep.ucl.ac.uk/mmht
<weight id="1499" MUR="1.0" MUF="1.0" PDF="25605" > PDF=25605 MemberID=0 </weight>
<weight id="1500" MUR="1.0" MUF="1.0" PDF="25606" > PDF=25605 MemberID=1 </weight>
<weight id="1501" MUR="1.0" MUF="1.0" PDF="25607" > PDF=25605 MemberID=2 </weight>
<weight id="1502" MUR="1.0" MUF="1.0" PDF="25608" > PDF=25605 MemberID=3 </weight>
<weight id="1503" MUR="1.0" MUF="1.0" PDF="25609" > PDF=25605 MemberID=4 </weight>
<weight id="1504" MUR="1.0" MUF="1.0" PDF="25610" > PDF=25605 MemberID=5 </weight>
<weight id="1505" MUR="1.0" MUF="1.0" PDF="25611" > PDF=25605 MemberID=6 </weight>
<weight id="1506" MUR="1.0" MUF="1.0" PDF="25612" > PDF=25605 MemberID=7 </weight>
<weight id="1507" MUR="1.0" MUF="1.0" PDF="25613" > PDF=25605 MemberID=8 </weight>
</weightgroup> # PDFSET -> PDFSET
<weightgroup name="MMHT2014nlo_mbrange_nf4" combine="unknown"> # 25620: MMHT 2014 NLO (range of mb, evolve with 4 flavours maximum). This set has 5 member PDFs. mem=0 --.gt. default mb = 4.75 GeV; mem=1-4 --.gt. mb = 4.25 - 5.25 GeV in steps of 0.25 GeV. Website: www.hep.ucl.ac.uk/mmht
<weight id="1508" MUR="1.0" MUF="1.0" PDF="25620" > PDF=25620 MemberID=0 </weight>
<weight id="1509" MUR="1.0" MUF="1.0" PDF="25621" > PDF=25620 MemberID=1 </weight>
<weight id="1510" MUR="1.0" MUF="1.0" PDF="25622" > PDF=25620 MemberID=2 </weight>
<weight id="1511" MUR="1.0" MUF="1.0" PDF="25623" > PDF=25620 MemberID=3 </weight>
<weight id="1512" MUR="1.0" MUF="1.0" PDF="25624" > PDF=25620 MemberID=4 </weight>
</weightgroup> # PDFSET -> PDFSET
<weightgroup name="MMHT2014nnlo68cl_nf4" combine="hessian"> # 25710: MMHT 2014 NNLO (68% C.L.): evolve with 4 flavours maximum. This set has 51 member PDFs. mem=0 --.gt. central value; mem=1-50 --.gt. 20 eigenvector sets (+/- directions). Website: www.hep.ucl.ac.uk/mmht
<weight id="1513" MUR="1.0" MUF="1.0" PDF="25710" > PDF=25710 MemberID=0 </weight>
<weight id="1514" MUR="1.0" MUF="1.0" PDF="25711" > PDF=25710 MemberID=1 </weight>
<weight id="1515" MUR="1.0" MUF="1.0" PDF="25712" > PDF=25710 MemberID=2 </weight>
<weight id="1516" MUR="1.0" MUF="1.0" PDF="25713" > PDF=25710 MemberID=3 </weight>
<weight id="1517" MUR="1.0" MUF="1.0" PDF="25714" > PDF=25710 MemberID=4 </weight>
<weight id="1518" MUR="1.0" MUF="1.0" PDF="25715" > PDF=25710 MemberID=5 </weight>
<weight id="1519" MUR="1.0" MUF="1.0" PDF="25716" > PDF=25710 MemberID=6 </weight>
<weight id="1520" MUR="1.0" MUF="1.0" PDF="25717" > PDF=25710 MemberID=7 </weight>
<weight id="1521" MUR="1.0" MUF="1.0" PDF="25718" > PDF=25710 MemberID=8 </weight>
<weight id="1522" MUR="1.0" MUF="1.0" PDF="25719" > PDF=25710 MemberID=9 </weight>
<weight id="1523" MUR="1.0" MUF="1.0" PDF="25720" > PDF=25710 MemberID=10 </weight>
<weight id="1524" MUR="1.0" MUF="1.0" PDF="25721" > PDF=25710 MemberID=11 </weight>
<weight id="1525" MUR="1.0" MUF="1.0" PDF="25722" > PDF=25710 MemberID=12 </weight>
<weight id="1526" MUR="1.0" MUF="1.0" PDF="25723" > PDF=25710 MemberID=13 </weight>
<weight id="1527" MUR="1.0" MUF="1.0" PDF="25724" > PDF=25710 MemberID=14 </weight>
<weight id="1528" MUR="1.0" MUF="1.0" PDF="25725" > PDF=25710 MemberID=15 </weight>
<weight id="1529" MUR="1.0" MUF="1.0" PDF="25726" > PDF=25710 MemberID=16 </weight>
<weight id="1530" MUR="1.0" MUF="1.0" PDF="25727" > PDF=25710 MemberID=17 </weight>
<weight id="1531" MUR="1.0" MUF="1.0" PDF="25728" > PDF=25710 MemberID=18 </weight>
<weight id="1532" MUR="1.0" MUF="1.0" PDF="25729" > PDF=25710 MemberID=19 </weight>
<weight id="1533" MUR="1.0" MUF="1.0" PDF="25730" > PDF=25710 MemberID=20 </weight>
<weight id="1534" MUR="1.0" MUF="1.0" PDF="25731" > PDF=25710 MemberID=21 </weight>
<weight id="1535" MUR="1.0" MUF="1.0" PDF="25732" > PDF=25710 MemberID=22 </weight>
<weight id="1536" MUR="1.0" MUF="1.0" PDF="25733" > PDF=25710 MemberID=23 </weight>
<weight id="1537" MUR="1.0" MUF="1.0" PDF="25734" > PDF=25710 MemberID=24 </weight>
<weight id="1538" MUR="1.0" MUF="1.0" PDF="25735" > PDF=25710 MemberID=25 </weight>
<weight id="1539" MUR="1.0" MUF="1.0" PDF="25736" > PDF=25710 MemberID=26 </weight>
<weight id="1540" MUR="1.0" MUF="1.0" PDF="25737" > PDF=25710 MemberID=27 </weight>
<weight id="1541" MUR="1.0" MUF="1.0" PDF="25738" > PDF=25710 MemberID=28 </weight>
<weight id="1542" MUR="1.0" MUF="1.0" PDF="25739" > PDF=25710 MemberID=29 </weight>
<weight id="1543" MUR="1.0" MUF="1.0" PDF="25740" > PDF=25710 MemberID=30 </weight>
<weight id="1544" MUR="1.0" MUF="1.0" PDF="25741" > PDF=25710 MemberID=31 </weight>
<weight id="1545" MUR="1.0" MUF="1.0" PDF="25742" > PDF=25710 MemberID=32 </weight>
<weight id="1546" MUR="1.0" MUF="1.0" PDF="25743" > PDF=25710 MemberID=33 </weight>
<weight id="1547" MUR="1.0" MUF="1.0" PDF="25744" > PDF=25710 MemberID=34 </weight>
<weight id="1548" MUR="1.0" MUF="1.0" PDF="25745" > PDF=25710 MemberID=35 </weight>
<weight id="1549" MUR="1.0" MUF="1.0" PDF="25746" > PDF=25710 MemberID=36 </weight>
<weight id="1550" MUR="1.0" MUF="1.0" PDF="25747" > PDF=25710 MemberID=37 </weight>
<weight id="1551" MUR="1.0" MUF="1.0" PDF="25748" > PDF=25710 MemberID=38 </weight>
<weight id="1552" MUR="1.0" MUF="1.0" PDF="25749" > PDF=25710 MemberID=39 </weight>
<weight id="1553" MUR="1.0" MUF="1.0" PDF="25750" > PDF=25710 MemberID=40 </weight>
<weight id="1554" MUR="1.0" MUF="1.0" PDF="25751" > PDF=25710 MemberID=41 </weight>
<weight id="1555" MUR="1.0" MUF="1.0" PDF="25752" > PDF=25710 MemberID=42 </weight>
<weight id="1556" MUR="1.0" MUF="1.0" PDF="25753" > PDF=25710 MemberID=43 </weight>
<weight id="1557" MUR="1.0" MUF="1.0" PDF="25754" > PDF=25710 MemberID=44 </weight>
<weight id="1558" MUR="1.0" MUF="1.0" PDF="25755" > PDF=25710 MemberID=45 </weight>
<weight id="1559" MUR="1.0" MUF="1.0" PDF="25756" > PDF=25710 MemberID=46 </weight>
<weight id="1560" MUR="1.0" MUF="1.0" PDF="25757" > PDF=25710 MemberID=47 </weight>
<weight id="1561" MUR="1.0" MUF="1.0" PDF="25758" > PDF=25710 MemberID=48 </weight>
<weight id="1562" MUR="1.0" MUF="1.0" PDF="25759" > PDF=25710 MemberID=49 </weight>
<weight id="1563" MUR="1.0" MUF="1.0" PDF="25760" > PDF=25710 MemberID=50 </weight>
</weightgroup> # PDFSET -> PDFSET
<weightgroup name="MMHT2014nnlo_asmzsmallrange_nf4" combine="unknown"> # 25770: MMHT 2014 NNLO (fits for range of alpha_S values, evolve with 4 flavours maximum). This set has 3 member PDFs. mem=0 --.gt. best-fit alpha_S(M_Z) = 0.118; mem=1-2 --.gt. alpha_S(M_Z) = 0.117, 0.119. Website: www.hep.ucl.ac.uk/mmht
<weight id="1564" MUR="1.0" MUF="1.0" PDF="25770" > PDF=25770 MemberID=0 </weight>
<weight id="1565" MUR="1.0" MUF="1.0" PDF="25771" > PDF=25770 MemberID=1 </weight>
<weight id="1566" MUR="1.0" MUF="1.0" PDF="25772" > PDF=25770 MemberID=2 </weight>
</weightgroup> # PDFSET -> PDFSET
<weightgroup name="MMHT2014nnlo_mcrange_nf4" combine="unknown"> # 25805: MMHT 2014 NNLO (range of mc, evolve with 4 flavours maximum). This set has 9 member PDFs. mem=0 --.gt. default mc = 1.40 GeV; mem=1-8 --.gt. mc = 1.15 - 1.55 GeV in steps of 0.05 GeV. Website: www.hep.ucl.ac.uk/mmht
<weight id="1567" MUR="1.0" MUF="1.0" PDF="25805" > PDF=25805 MemberID=0 </weight>
<weight id="1568" MUR="1.0" MUF="1.0" PDF="25806" > PDF=25805 MemberID=1 </weight>
<weight id="1569" MUR="1.0" MUF="1.0" PDF="25807" > PDF=25805 MemberID=2 </weight>
<weight id="1570" MUR="1.0" MUF="1.0" PDF="25808" > PDF=25805 MemberID=3 </weight>
<weight id="1571" MUR="1.0" MUF="1.0" PDF="25809" > PDF=25805 MemberID=4 </weight>
<weight id="1572" MUR="1.0" MUF="1.0" PDF="25810" > PDF=25805 MemberID=5 </weight>
<weight id="1573" MUR="1.0" MUF="1.0" PDF="25811" > PDF=25805 MemberID=6 </weight>
<weight id="1574" MUR="1.0" MUF="1.0" PDF="25812" > PDF=25805 MemberID=7 </weight>
<weight id="1575" MUR="1.0" MUF="1.0" PDF="25813" > PDF=25805 MemberID=8 </weight>
</weightgroup> # PDFSET -> PDFSET
<weightgroup name="MMHT2014nnlo_mbrange_nf4" combine="unknown"> # 25840: MMHT 2014 NNLO (range of mb, evolve with 4 flavours maximum). This set has 5 member PDFs. mem=0 --.gt. default mb = 4.75 GeV; mem=1-4 --.gt. mb = 4.25 - 5.25 GeV in steps of 0.25 GeV. Website: www.hep.ucl.ac.uk/mmht
<weight id="1576" MUR="1.0" MUF="1.0" PDF="25840" > PDF=25840 MemberID=0 </weight>
<weight id="1577" MUR="1.0" MUF="1.0" PDF="25841" > PDF=25840 MemberID=1 </weight>
<weight id="1578" MUR="1.0" MUF="1.0" PDF="25842" > PDF=25840 MemberID=2 </weight>
<weight id="1579" MUR="1.0" MUF="1.0" PDF="25843" > PDF=25840 MemberID=3 </weight>
<weight id="1580" MUR="1.0" MUF="1.0" PDF="25844" > PDF=25840 MemberID=4 </weight>
</weightgroup> # PDFSET -> PDFSET
<weightgroup name="PDF4LHC15_nlo_nf4_30" combine="symmhessian"> # 92000: PDF4LHC15_nlo_nf4_30, alphas(MZ)=0.1126, mem=0 ; central value; mem=1-30 ; PDF symmetric eigenvectors
<weight id="1581" MUR="1.0" MUF="1.0" PDF="92000" > PDF=92000 MemberID=0 </weight>
<weight id="1582" MUR="1.0" MUF="1.0" PDF="92001" > PDF=92000 MemberID=1 </weight>
<weight id="1583" MUR="1.0" MUF="1.0" PDF="92002" > PDF=92000 MemberID=2 </weight>
<weight id="1584" MUR="1.0" MUF="1.0" PDF="92003" > PDF=92000 MemberID=3 </weight>
<weight id="1585" MUR="1.0" MUF="1.0" PDF="92004" > PDF=92000 MemberID=4 </weight>
<weight id="1586" MUR="1.0" MUF="1.0" PDF="92005" > PDF=92000 MemberID=5 </weight>
<weight id="1587" MUR="1.0" MUF="1.0" PDF="92006" > PDF=92000 MemberID=6 </weight>
<weight id="1588" MUR="1.0" MUF="1.0" PDF="92007" > PDF=92000 MemberID=7 </weight>
<weight id="1589" MUR="1.0" MUF="1.0" PDF="92008" > PDF=92000 MemberID=8 </weight>
<weight id="1590" MUR="1.0" MUF="1.0" PDF="92009" > PDF=92000 MemberID=9 </weight>
<weight id="1591" MUR="1.0" MUF="1.0" PDF="92010" > PDF=92000 MemberID=10 </weight>
<weight id="1592" MUR="1.0" MUF="1.0" PDF="92011" > PDF=92000 MemberID=11 </weight>
<weight id="1593" MUR="1.0" MUF="1.0" PDF="92012" > PDF=92000 MemberID=12 </weight>
<weight id="1594" MUR="1.0" MUF="1.0" PDF="92013" > PDF=92000 MemberID=13 </weight>
<weight id="1595" MUR="1.0" MUF="1.0" PDF="92014" > PDF=92000 MemberID=14 </weight>
<weight id="1596" MUR="1.0" MUF="1.0" PDF="92015" > PDF=92000 MemberID=15 </weight>
<weight id="1597" MUR="1.0" MUF="1.0" PDF="92016" > PDF=92000 MemberID=16 </weight>
<weight id="1598" MUR="1.0" MUF="1.0" PDF="92017" > PDF=92000 MemberID=17 </weight>
<weight id="1599" MUR="1.0" MUF="1.0" PDF="92018" > PDF=92000 MemberID=18 </weight>
<weight id="1600" MUR="1.0" MUF="1.0" PDF="92019" > PDF=92000 MemberID=19 </weight>
<weight id="1601" MUR="1.0" MUF="1.0" PDF="92020" > PDF=92000 MemberID=20 </weight>
<weight id="1602" MUR="1.0" MUF="1.0" PDF="92021" > PDF=92000 MemberID=21 </weight>
<weight id="1603" MUR="1.0" MUF="1.0" PDF="92022" > PDF=92000 MemberID=22 </weight>
<weight id="1604" MUR="1.0" MUF="1.0" PDF="92023" > PDF=92000 MemberID=23 </weight>
<weight id="1605" MUR="1.0" MUF="1.0" PDF="92024" > PDF=92000 MemberID=24 </weight>
<weight id="1606" MUR="1.0" MUF="1.0" PDF="92025" > PDF=92000 MemberID=25 </weight>
<weight id="1607" MUR="1.0" MUF="1.0" PDF="92026" > PDF=92000 MemberID=26 </weight>
<weight id="1608" MUR="1.0" MUF="1.0" PDF="92027" > PDF=92000 MemberID=27 </weight>
<weight id="1609" MUR="1.0" MUF="1.0" PDF="92028" > PDF=92000 MemberID=28 </weight>
<weight id="1610" MUR="1.0" MUF="1.0" PDF="92029" > PDF=92000 MemberID=29 </weight>
<weight id="1611" MUR="1.0" MUF="1.0" PDF="92030" > PDF=92000 MemberID=30 </weight>
</weightgroup> # PDFSET -> PDFSET
<weightgroup name="NNPDF31_nnlo_hessian_pdfas" combine="symmhessian+as"> # 306000: Hessian conversion of NNPDF31_nnlo_as_0118_1000, mem=0 central value ; Alphas(MZ)=0.118; mem=1-100 ; PDF eig.; mem=101 ; central value Alphas(MZ)=0.116; mem=102 ; central value Alphas(MZ)=0.120
<weight id="1612" MUR="1.0" MUF="1.0" PDF="306000" > PDF=306000 MemberID=0 </weight>
<weight id="1613" MUR="1.0" MUF="1.0" PDF="306001" > PDF=306000 MemberID=1 </weight>
<weight id="1614" MUR="1.0" MUF="1.0" PDF="306002" > PDF=306000 MemberID=2 </weight>
<weight id="1615" MUR="1.0" MUF="1.0" PDF="306003" > PDF=306000 MemberID=3 </weight>
<weight id="1616" MUR="1.0" MUF="1.0" PDF="306004" > PDF=306000 MemberID=4 </weight>
<weight id="1617" MUR="1.0" MUF="1.0" PDF="306005" > PDF=306000 MemberID=5 </weight>
<weight id="1618" MUR="1.0" MUF="1.0" PDF="306006" > PDF=306000 MemberID=6 </weight>
<weight id="1619" MUR="1.0" MUF="1.0" PDF="306007" > PDF=306000 MemberID=7 </weight>
<weight id="1620" MUR="1.0" MUF="1.0" PDF="306008" > PDF=306000 MemberID=8 </weight>
<weight id="1621" MUR="1.0" MUF="1.0" PDF="306009" > PDF=306000 MemberID=9 </weight>
<weight id="1622" MUR="1.0" MUF="1.0" PDF="306010" > PDF=306000 MemberID=10 </weight>
<weight id="1623" MUR="1.0" MUF="1.0" PDF="306011" > PDF=306000 MemberID=11 </weight>
<weight id="1624" MUR="1.0" MUF="1.0" PDF="306012" > PDF=306000 MemberID=12 </weight>
<weight id="1625" MUR="1.0" MUF="1.0" PDF="306013" > PDF=306000 MemberID=13 </weight>
<weight id="1626" MUR="1.0" MUF="1.0" PDF="306014" > PDF=306000 MemberID=14 </weight>
<weight id="1627" MUR="1.0" MUF="1.0" PDF="306015" > PDF=306000 MemberID=15 </weight>
<weight id="1628" MUR="1.0" MUF="1.0" PDF="306016" > PDF=306000 MemberID=16 </weight>
<weight id="1629" MUR="1.0" MUF="1.0" PDF="306017" > PDF=306000 MemberID=17 </weight>
<weight id="1630" MUR="1.0" MUF="1.0" PDF="306018" > PDF=306000 MemberID=18 </weight>
<weight id="1631" MUR="1.0" MUF="1.0" PDF="306019" > PDF=306000 MemberID=19 </weight>
<weight id="1632" MUR="1.0" MUF="1.0" PDF="306020" > PDF=306000 MemberID=20 </weight>
<weight id="1633" MUR="1.0" MUF="1.0" PDF="306021" > PDF=306000 MemberID=21 </weight>
<weight id="1634" MUR="1.0" MUF="1.0" PDF="306022" > PDF=306000 MemberID=22 </weight>
<weight id="1635" MUR="1.0" MUF="1.0" PDF="306023" > PDF=306000 MemberID=23 </weight>
<weight id="1636" MUR="1.0" MUF="1.0" PDF="306024" > PDF=306000 MemberID=24 </weight>
<weight id="1637" MUR="1.0" MUF="1.0" PDF="306025" > PDF=306000 MemberID=25 </weight>
<weight id="1638" MUR="1.0" MUF="1.0" PDF="306026" > PDF=306000 MemberID=26 </weight>
<weight id="1639" MUR="1.0" MUF="1.0" PDF="306027" > PDF=306000 MemberID=27 </weight>
<weight id="1640" MUR="1.0" MUF="1.0" PDF="306028" > PDF=306000 MemberID=28 </weight>
<weight id="1641" MUR="1.0" MUF="1.0" PDF="306029" > PDF=306000 MemberID=29 </weight>
<weight id="1642" MUR="1.0" MUF="1.0" PDF="306030" > PDF=306000 MemberID=30 </weight>
<weight id="1643" MUR="1.0" MUF="1.0" PDF="306031" > PDF=306000 MemberID=31 </weight>
<weight id="1644" MUR="1.0" MUF="1.0" PDF="306032" > PDF=306000 MemberID=32 </weight>
<weight id="1645" MUR="1.0" MUF="1.0" PDF="306033" > PDF=306000 MemberID=33 </weight>
<weight id="1646" MUR="1.0" MUF="1.0" PDF="306034" > PDF=306000 MemberID=34 </weight>
<weight id="1647" MUR="1.0" MUF="1.0" PDF="306035" > PDF=306000 MemberID=35 </weight>
<weight id="1648" MUR="1.0" MUF="1.0" PDF="306036" > PDF=306000 MemberID=36 </weight>
<weight id="1649" MUR="1.0" MUF="1.0" PDF="306037" > PDF=306000 MemberID=37 </weight>
<weight id="1650" MUR="1.0" MUF="1.0" PDF="306038" > PDF=306000 MemberID=38 </weight>
<weight id="1651" MUR="1.0" MUF="1.0" PDF="306039" > PDF=306000 MemberID=39 </weight>
<weight id="1652" MUR="1.0" MUF="1.0" PDF="306040" > PDF=306000 MemberID=40 </weight>
<weight id="1653" MUR="1.0" MUF="1.0" PDF="306041" > PDF=306000 MemberID=41 </weight>
<weight id="1654" MUR="1.0" MUF="1.0" PDF="306042" > PDF=306000 MemberID=42 </weight>
<weight id="1655" MUR="1.0" MUF="1.0" PDF="306043" > PDF=306000 MemberID=43 </weight>
<weight id="1656" MUR="1.0" MUF="1.0" PDF="306044" > PDF=306000 MemberID=44 </weight>
<weight id="1657" MUR="1.0" MUF="1.0" PDF="306045" > PDF=306000 MemberID=45 </weight>
<weight id="1658" MUR="1.0" MUF="1.0" PDF="306046" > PDF=306000 MemberID=46 </weight>
<weight id="1659" MUR="1.0" MUF="1.0" PDF="306047" > PDF=306000 MemberID=47 </weight>
<weight id="1660" MUR="1.0" MUF="1.0" PDF="306048" > PDF=306000 MemberID=48 </weight>
<weight id="1661" MUR="1.0" MUF="1.0" PDF="306049" > PDF=306000 MemberID=49 </weight>
<weight id="1662" MUR="1.0" MUF="1.0" PDF="306050" > PDF=306000 MemberID=50 </weight>
<weight id="1663" MUR="1.0" MUF="1.0" PDF="306051" > PDF=306000 MemberID=51 </weight>
<weight id="1664" MUR="1.0" MUF="1.0" PDF="306052" > PDF=306000 MemberID=52 </weight>
<weight id="1665" MUR="1.0" MUF="1.0" PDF="306053" > PDF=306000 MemberID=53 </weight>
<weight id="1666" MUR="1.0" MUF="1.0" PDF="306054" > PDF=306000 MemberID=54 </weight>
<weight id="1667" MUR="1.0" MUF="1.0" PDF="306055" > PDF=306000 MemberID=55 </weight>
<weight id="1668" MUR="1.0" MUF="1.0" PDF="306056" > PDF=306000 MemberID=56 </weight>
<weight id="1669" MUR="1.0" MUF="1.0" PDF="306057" > PDF=306000 MemberID=57 </weight>
<weight id="1670" MUR="1.0" MUF="1.0" PDF="306058" > PDF=306000 MemberID=58 </weight>
<weight id="1671" MUR="1.0" MUF="1.0" PDF="306059" > PDF=306000 MemberID=59 </weight>
<weight id="1672" MUR="1.0" MUF="1.0" PDF="306060" > PDF=306000 MemberID=60 </weight>
<weight id="1673" MUR="1.0" MUF="1.0" PDF="306061" > PDF=306000 MemberID=61 </weight>
<weight id="1674" MUR="1.0" MUF="1.0" PDF="306062" > PDF=306000 MemberID=62 </weight>
<weight id="1675" MUR="1.0" MUF="1.0" PDF="306063" > PDF=306000 MemberID=63 </weight>
<weight id="1676" MUR="1.0" MUF="1.0" PDF="306064" > PDF=306000 MemberID=64 </weight>
<weight id="1677" MUR="1.0" MUF="1.0" PDF="306065" > PDF=306000 MemberID=65 </weight>
<weight id="1678" MUR="1.0" MUF="1.0" PDF="306066" > PDF=306000 MemberID=66 </weight>
<weight id="1679" MUR="1.0" MUF="1.0" PDF="306067" > PDF=306000 MemberID=67 </weight>
<weight id="1680" MUR="1.0" MUF="1.0" PDF="306068" > PDF=306000 MemberID=68 </weight>
<weight id="1681" MUR="1.0" MUF="1.0" PDF="306069" > PDF=306000 MemberID=69 </weight>
<weight id="1682" MUR="1.0" MUF="1.0" PDF="306070" > PDF=306000 MemberID=70 </weight>
<weight id="1683" MUR="1.0" MUF="1.0" PDF="306071" > PDF=306000 MemberID=71 </weight>
<weight id="1684" MUR="1.0" MUF="1.0" PDF="306072" > PDF=306000 MemberID=72 </weight>
<weight id="1685" MUR="1.0" MUF="1.0" PDF="306073" > PDF=306000 MemberID=73 </weight>
<weight id="1686" MUR="1.0" MUF="1.0" PDF="306074" > PDF=306000 MemberID=74 </weight>
<weight id="1687" MUR="1.0" MUF="1.0" PDF="306075" > PDF=306000 MemberID=75 </weight>
<weight id="1688" MUR="1.0" MUF="1.0" PDF="306076" > PDF=306000 MemberID=76 </weight>
<weight id="1689" MUR="1.0" MUF="1.0" PDF="306077" > PDF=306000 MemberID=77 </weight>
<weight id="1690" MUR="1.0" MUF="1.0" PDF="306078" > PDF=306000 MemberID=78 </weight>
<weight id="1691" MUR="1.0" MUF="1.0" PDF="306079" > PDF=306000 MemberID=79 </weight>
<weight id="1692" MUR="1.0" MUF="1.0" PDF="306080" > PDF=306000 MemberID=80 </weight>
<weight id="1693" MUR="1.0" MUF="1.0" PDF="306081" > PDF=306000 MemberID=81 </weight>
<weight id="1694" MUR="1.0" MUF="1.0" PDF="306082" > PDF=306000 MemberID=82 </weight>
<weight id="1695" MUR="1.0" MUF="1.0" PDF="306083" > PDF=306000 MemberID=83 </weight>
<weight id="1696" MUR="1.0" MUF="1.0" PDF="306084" > PDF=306000 MemberID=84 </weight>
<weight id="1697" MUR="1.0" MUF="1.0" PDF="306085" > PDF=306000 MemberID=85 </weight>
<weight id="1698" MUR="1.0" MUF="1.0" PDF="306086" > PDF=306000 MemberID=86 </weight>
<weight id="1699" MUR="1.0" MUF="1.0" PDF="306087" > PDF=306000 MemberID=87 </weight>
<weight id="1700" MUR="1.0" MUF="1.0" PDF="306088" > PDF=306000 MemberID=88 </weight>
<weight id="1701" MUR="1.0" MUF="1.0" PDF="306089" > PDF=306000 MemberID=89 </weight>
<weight id="1702" MUR="1.0" MUF="1.0" PDF="306090" > PDF=306000 MemberID=90 </weight>
<weight id="1703" MUR="1.0" MUF="1.0" PDF="306091" > PDF=306000 MemberID=91 </weight>
<weight id="1704" MUR="1.0" MUF="1.0" PDF="306092" > PDF=306000 MemberID=92 </weight>
<weight id="1705" MUR="1.0" MUF="1.0" PDF="306093" > PDF=306000 MemberID=93 </weight>
<weight id="1706" MUR="1.0" MUF="1.0" PDF="306094" > PDF=306000 MemberID=94 </weight>
<weight id="1707" MUR="1.0" MUF="1.0" PDF="306095" > PDF=306000 MemberID=95 </weight>
<weight id="1708" MUR="1.0" MUF="1.0" PDF="306096" > PDF=306000 MemberID=96 </weight>
<weight id="1709" MUR="1.0" MUF="1.0" PDF="306097" > PDF=306000 MemberID=97 </weight>
<weight id="1710" MUR="1.0" MUF="1.0" PDF="306098" > PDF=306000 MemberID=98 </weight>
<weight id="1711" MUR="1.0" MUF="1.0" PDF="306099" > PDF=306000 MemberID=99 </weight>
<weight id="1712" MUR="1.0" MUF="1.0" PDF="306100" > PDF=306000 MemberID=100 </weight>
<weight id="1713" MUR="1.0" MUF="1.0" PDF="306101" > PDF=306000 MemberID=101 </weight>
<weight id="1714" MUR="1.0" MUF="1.0" PDF="306102" > PDF=306000 MemberID=102 </weight>
</weightgroup> # PDFSET -> PDFSET
<weightgroup name="NNPDF31_nlo_as_0118_nf_4" combine="replicas"> # 320500: NNPDF3.1 NLO global fit, nf=4. mem=0 ; average on replicas; mem=1-100 ; PDF replicas
<weight id="1715" MUR="1.0" MUF="1.0" PDF="320500" > PDF=320500 MemberID=0 </weight>
<weight id="1716" MUR="1.0" MUF="1.0" PDF="320501" > PDF=320500 MemberID=1 </weight>
<weight id="1717" MUR="1.0" MUF="1.0" PDF="320502" > PDF=320500 MemberID=2 </weight>
<weight id="1718" MUR="1.0" MUF="1.0" PDF="320503" > PDF=320500 MemberID=3 </weight>
<weight id="1719" MUR="1.0" MUF="1.0" PDF="320504" > PDF=320500 MemberID=4 </weight>
<weight id="1720" MUR="1.0" MUF="1.0" PDF="320505" > PDF=320500 MemberID=5 </weight>
<weight id="1721" MUR="1.0" MUF="1.0" PDF="320506" > PDF=320500 MemberID=6 </weight>
<weight id="1722" MUR="1.0" MUF="1.0" PDF="320507" > PDF=320500 MemberID=7 </weight>
<weight id="1723" MUR="1.0" MUF="1.0" PDF="320508" > PDF=320500 MemberID=8 </weight>
<weight id="1724" MUR="1.0" MUF="1.0" PDF="320509" > PDF=320500 MemberID=9 </weight>
<weight id="1725" MUR="1.0" MUF="1.0" PDF="320510" > PDF=320500 MemberID=10 </weight>
<weight id="1726" MUR="1.0" MUF="1.0" PDF="320511" > PDF=320500 MemberID=11 </weight>
<weight id="1727" MUR="1.0" MUF="1.0" PDF="320512" > PDF=320500 MemberID=12 </weight>
<weight id="1728" MUR="1.0" MUF="1.0" PDF="320513" > PDF=320500 MemberID=13 </weight>
<weight id="1729" MUR="1.0" MUF="1.0" PDF="320514" > PDF=320500 MemberID=14 </weight>
<weight id="1730" MUR="1.0" MUF="1.0" PDF="320515" > PDF=320500 MemberID=15 </weight>
<weight id="1731" MUR="1.0" MUF="1.0" PDF="320516" > PDF=320500 MemberID=16 </weight>
<weight id="1732" MUR="1.0" MUF="1.0" PDF="320517" > PDF=320500 MemberID=17 </weight>
<weight id="1733" MUR="1.0" MUF="1.0" PDF="320518" > PDF=320500 MemberID=18 </weight>
<weight id="1734" MUR="1.0" MUF="1.0" PDF="320519" > PDF=320500 MemberID=19 </weight>
<weight id="1735" MUR="1.0" MUF="1.0" PDF="320520" > PDF=320500 MemberID=20 </weight>
<weight id="1736" MUR="1.0" MUF="1.0" PDF="320521" > PDF=320500 MemberID=21 </weight>
<weight id="1737" MUR="1.0" MUF="1.0" PDF="320522" > PDF=320500 MemberID=22 </weight>
<weight id="1738" MUR="1.0" MUF="1.0" PDF="320523" > PDF=320500 MemberID=23 </weight>
<weight id="1739" MUR="1.0" MUF="1.0" PDF="320524" > PDF=320500 MemberID=24 </weight>
<weight id="1740" MUR="1.0" MUF="1.0" PDF="320525" > PDF=320500 MemberID=25 </weight>
<weight id="1741" MUR="1.0" MUF="1.0" PDF="320526" > PDF=320500 MemberID=26 </weight>
<weight id="1742" MUR="1.0" MUF="1.0" PDF="320527" > PDF=320500 MemberID=27 </weight>
<weight id="1743" MUR="1.0" MUF="1.0" PDF="320528" > PDF=320500 MemberID=28 </weight>
<weight id="1744" MUR="1.0" MUF="1.0" PDF="320529" > PDF=320500 MemberID=29 </weight>
<weight id="1745" MUR="1.0" MUF="1.0" PDF="320530" > PDF=320500 MemberID=30 </weight>
<weight id="1746" MUR="1.0" MUF="1.0" PDF="320531" > PDF=320500 MemberID=31 </weight>
<weight id="1747" MUR="1.0" MUF="1.0" PDF="320532" > PDF=320500 MemberID=32 </weight>
<weight id="1748" MUR="1.0" MUF="1.0" PDF="320533" > PDF=320500 MemberID=33 </weight>
<weight id="1749" MUR="1.0" MUF="1.0" PDF="320534" > PDF=320500 MemberID=34 </weight>
<weight id="1750" MUR="1.0" MUF="1.0" PDF="320535" > PDF=320500 MemberID=35 </weight>
<weight id="1751" MUR="1.0" MUF="1.0" PDF="320536" > PDF=320500 MemberID=36 </weight>
<weight id="1752" MUR="1.0" MUF="1.0" PDF="320537" > PDF=320500 MemberID=37 </weight>
<weight id="1753" MUR="1.0" MUF="1.0" PDF="320538" > PDF=320500 MemberID=38 </weight>
<weight id="1754" MUR="1.0" MUF="1.0" PDF="320539" > PDF=320500 MemberID=39 </weight>
<weight id="1755" MUR="1.0" MUF="1.0" PDF="320540" > PDF=320500 MemberID=40 </weight>
<weight id="1756" MUR="1.0" MUF="1.0" PDF="320541" > PDF=320500 MemberID=41 </weight>
<weight id="1757" MUR="1.0" MUF="1.0" PDF="320542" > PDF=320500 MemberID=42 </weight>
<weight id="1758" MUR="1.0" MUF="1.0" PDF="320543" > PDF=320500 MemberID=43 </weight>
<weight id="1759" MUR="1.0" MUF="1.0" PDF="320544" > PDF=320500 MemberID=44 </weight>
<weight id="1760" MUR="1.0" MUF="1.0" PDF="320545" > PDF=320500 MemberID=45 </weight>
<weight id="1761" MUR="1.0" MUF="1.0" PDF="320546" > PDF=320500 MemberID=46 </weight>
<weight id="1762" MUR="1.0" MUF="1.0" PDF="320547" > PDF=320500 MemberID=47 </weight>
<weight id="1763" MUR="1.0" MUF="1.0" PDF="320548" > PDF=320500 MemberID=48 </weight>
<weight id="1764" MUR="1.0" MUF="1.0" PDF="320549" > PDF=320500 MemberID=49 </weight>
<weight id="1765" MUR="1.0" MUF="1.0" PDF="320550" > PDF=320500 MemberID=50 </weight>
<weight id="1766" MUR="1.0" MUF="1.0" PDF="320551" > PDF=320500 MemberID=51 </weight>
<weight id="1767" MUR="1.0" MUF="1.0" PDF="320552" > PDF=320500 MemberID=52 </weight>
<weight id="1768" MUR="1.0" MUF="1.0" PDF="320553" > PDF=320500 MemberID=53 </weight>
<weight id="1769" MUR="1.0" MUF="1.0" PDF="320554" > PDF=320500 MemberID=54 </weight>
<weight id="1770" MUR="1.0" MUF="1.0" PDF="320555" > PDF=320500 MemberID=55 </weight>
<weight id="1771" MUR="1.0" MUF="1.0" PDF="320556" > PDF=320500 MemberID=56 </weight>
<weight id="1772" MUR="1.0" MUF="1.0" PDF="320557" > PDF=320500 MemberID=57 </weight>
<weight id="1773" MUR="1.0" MUF="1.0" PDF="320558" > PDF=320500 MemberID=58 </weight>
<weight id="1774" MUR="1.0" MUF="1.0" PDF="320559" > PDF=320500 MemberID=59 </weight>
<weight id="1775" MUR="1.0" MUF="1.0" PDF="320560" > PDF=320500 MemberID=60 </weight>
<weight id="1776" MUR="1.0" MUF="1.0" PDF="320561" > PDF=320500 MemberID=61 </weight>
<weight id="1777" MUR="1.0" MUF="1.0" PDF="320562" > PDF=320500 MemberID=62 </weight>
<weight id="1778" MUR="1.0" MUF="1.0" PDF="320563" > PDF=320500 MemberID=63 </weight>
<weight id="1779" MUR="1.0" MUF="1.0" PDF="320564" > PDF=320500 MemberID=64 </weight>
<weight id="1780" MUR="1.0" MUF="1.0" PDF="320565" > PDF=320500 MemberID=65 </weight>
<weight id="1781" MUR="1.0" MUF="1.0" PDF="320566" > PDF=320500 MemberID=66 </weight>
<weight id="1782" MUR="1.0" MUF="1.0" PDF="320567" > PDF=320500 MemberID=67 </weight>
<weight id="1783" MUR="1.0" MUF="1.0" PDF="320568" > PDF=320500 MemberID=68 </weight>
<weight id="1784" MUR="1.0" MUF="1.0" PDF="320569" > PDF=320500 MemberID=69 </weight>
<weight id="1785" MUR="1.0" MUF="1.0" PDF="320570" > PDF=320500 MemberID=70 </weight>
<weight id="1786" MUR="1.0" MUF="1.0" PDF="320571" > PDF=320500 MemberID=71 </weight>
<weight id="1787" MUR="1.0" MUF="1.0" PDF="320572" > PDF=320500 MemberID=72 </weight>
<weight id="1788" MUR="1.0" MUF="1.0" PDF="320573" > PDF=320500 MemberID=73 </weight>
<weight id="1789" MUR="1.0" MUF="1.0" PDF="320574" > PDF=320500 MemberID=74 </weight>
<weight id="1790" MUR="1.0" MUF="1.0" PDF="320575" > PDF=320500 MemberID=75 </weight>
<weight id="1791" MUR="1.0" MUF="1.0" PDF="320576" > PDF=320500 MemberID=76 </weight>
<weight id="1792" MUR="1.0" MUF="1.0" PDF="320577" > PDF=320500 MemberID=77 </weight>
<weight id="1793" MUR="1.0" MUF="1.0" PDF="320578" > PDF=320500 MemberID=78 </weight>
<weight id="1794" MUR="1.0" MUF="1.0" PDF="320579" > PDF=320500 MemberID=79 </weight>
<weight id="1795" MUR="1.0" MUF="1.0" PDF="320580" > PDF=320500 MemberID=80 </weight>
<weight id="1796" MUR="1.0" MUF="1.0" PDF="320581" > PDF=320500 MemberID=81 </weight>
<weight id="1797" MUR="1.0" MUF="1.0" PDF="320582" > PDF=320500 MemberID=82 </weight>
<weight id="1798" MUR="1.0" MUF="1.0" PDF="320583" > PDF=320500 MemberID=83 </weight>
<weight id="1799" MUR="1.0" MUF="1.0" PDF="320584" > PDF=320500 MemberID=84 </weight>
<weight id="1800" MUR="1.0" MUF="1.0" PDF="320585" > PDF=320500 MemberID=85 </weight>
<weight id="1801" MUR="1.0" MUF="1.0" PDF="320586" > PDF=320500 MemberID=86 </weight>
<weight id="1802" MUR="1.0" MUF="1.0" PDF="320587" > PDF=320500 MemberID=87 </weight>
<weight id="1803" MUR="1.0" MUF="1.0" PDF="320588" > PDF=320500 MemberID=88 </weight>
<weight id="1804" MUR="1.0" MUF="1.0" PDF="320589" > PDF=320500 MemberID=89 </weight>
<weight id="1805" MUR="1.0" MUF="1.0" PDF="320590" > PDF=320500 MemberID=90 </weight>
<weight id="1806" MUR="1.0" MUF="1.0" PDF="320591" > PDF=320500 MemberID=91 </weight>
<weight id="1807" MUR="1.0" MUF="1.0" PDF="320592" > PDF=320500 MemberID=92 </weight>
<weight id="1808" MUR="1.0" MUF="1.0" PDF="320593" > PDF=320500 MemberID=93 </weight>
<weight id="1809" MUR="1.0" MUF="1.0" PDF="320594" > PDF=320500 MemberID=94 </weight>
<weight id="1810" MUR="1.0" MUF="1.0" PDF="320595" > PDF=320500 MemberID=95 </weight>
<weight id="1811" MUR="1.0" MUF="1.0" PDF="320596" > PDF=320500 MemberID=96 </weight>
<weight id="1812" MUR="1.0" MUF="1.0" PDF="320597" > PDF=320500 MemberID=97 </weight>
<weight id="1813" MUR="1.0" MUF="1.0" PDF="320598" > PDF=320500 MemberID=98 </weight>
<weight id="1814" MUR="1.0" MUF="1.0" PDF="320599" > PDF=320500 MemberID=99 </weight>
<weight id="1815" MUR="1.0" MUF="1.0" PDF="320600" > PDF=320500 MemberID=100 </weight>
</weightgroup> # PDFSET -> PDFSET
<weightgroup name="NNPDF30_nlo_as_0118_nf_4" combine="replicas"> # 260400: NNPDF3.0 NLO global fit, alphas(mb)=0.22278. mem=0 ; average on replicas; mem=1-100 ; PDF replicas
<weight id="1816" MUR="1.0" MUF="1.0" PDF="260400" > PDF=260400 MemberID=0 </weight>
<weight id="1817" MUR="1.0" MUF="1.0" PDF="260401" > PDF=260400 MemberID=1 </weight>
<weight id="1818" MUR="1.0" MUF="1.0" PDF="260402" > PDF=260400 MemberID=2 </weight>
<weight id="1819" MUR="1.0" MUF="1.0" PDF="260403" > PDF=260400 MemberID=3 </weight>
<weight id="1820" MUR="1.0" MUF="1.0" PDF="260404" > PDF=260400 MemberID=4 </weight>
<weight id="1821" MUR="1.0" MUF="1.0" PDF="260405" > PDF=260400 MemberID=5 </weight>
<weight id="1822" MUR="1.0" MUF="1.0" PDF="260406" > PDF=260400 MemberID=6 </weight>
<weight id="1823" MUR="1.0" MUF="1.0" PDF="260407" > PDF=260400 MemberID=7 </weight>
<weight id="1824" MUR="1.0" MUF="1.0" PDF="260408" > PDF=260400 MemberID=8 </weight>
<weight id="1825" MUR="1.0" MUF="1.0" PDF="260409" > PDF=260400 MemberID=9 </weight>
<weight id="1826" MUR="1.0" MUF="1.0" PDF="260410" > PDF=260400 MemberID=10 </weight>
<weight id="1827" MUR="1.0" MUF="1.0" PDF="260411" > PDF=260400 MemberID=11 </weight>
<weight id="1828" MUR="1.0" MUF="1.0" PDF="260412" > PDF=260400 MemberID=12 </weight>
<weight id="1829" MUR="1.0" MUF="1.0" PDF="260413" > PDF=260400 MemberID=13 </weight>
<weight id="1830" MUR="1.0" MUF="1.0" PDF="260414" > PDF=260400 MemberID=14 </weight>
<weight id="1831" MUR="1.0" MUF="1.0" PDF="260415" > PDF=260400 MemberID=15 </weight>
<weight id="1832" MUR="1.0" MUF="1.0" PDF="260416" > PDF=260400 MemberID=16 </weight>
<weight id="1833" MUR="1.0" MUF="1.0" PDF="260417" > PDF=260400 MemberID=17 </weight>
<weight id="1834" MUR="1.0" MUF="1.0" PDF="260418" > PDF=260400 MemberID=18 </weight>
<weight id="1835" MUR="1.0" MUF="1.0" PDF="260419" > PDF=260400 MemberID=19 </weight>
<weight id="1836" MUR="1.0" MUF="1.0" PDF="260420" > PDF=260400 MemberID=20 </weight>
<weight id="1837" MUR="1.0" MUF="1.0" PDF="260421" > PDF=260400 MemberID=21 </weight>
<weight id="1838" MUR="1.0" MUF="1.0" PDF="260422" > PDF=260400 MemberID=22 </weight>
<weight id="1839" MUR="1.0" MUF="1.0" PDF="260423" > PDF=260400 MemberID=23 </weight>
<weight id="1840" MUR="1.0" MUF="1.0" PDF="260424" > PDF=260400 MemberID=24 </weight>
<weight id="1841" MUR="1.0" MUF="1.0" PDF="260425" > PDF=260400 MemberID=25 </weight>
<weight id="1842" MUR="1.0" MUF="1.0" PDF="260426" > PDF=260400 MemberID=26 </weight>
<weight id="1843" MUR="1.0" MUF="1.0" PDF="260427" > PDF=260400 MemberID=27 </weight>
<weight id="1844" MUR="1.0" MUF="1.0" PDF="260428" > PDF=260400 MemberID=28 </weight>
<weight id="1845" MUR="1.0" MUF="1.0" PDF="260429" > PDF=260400 MemberID=29 </weight>
<weight id="1846" MUR="1.0" MUF="1.0" PDF="260430" > PDF=260400 MemberID=30 </weight>
<weight id="1847" MUR="1.0" MUF="1.0" PDF="260431" > PDF=260400 MemberID=31 </weight>
<weight id="1848" MUR="1.0" MUF="1.0" PDF="260432" > PDF=260400 MemberID=32 </weight>
<weight id="1849" MUR="1.0" MUF="1.0" PDF="260433" > PDF=260400 MemberID=33 </weight>
<weight id="1850" MUR="1.0" MUF="1.0" PDF="260434" > PDF=260400 MemberID=34 </weight>
<weight id="1851" MUR="1.0" MUF="1.0" PDF="260435" > PDF=260400 MemberID=35 </weight>
<weight id="1852" MUR="1.0" MUF="1.0" PDF="260436" > PDF=260400 MemberID=36 </weight>
<weight id="1853" MUR="1.0" MUF="1.0" PDF="260437" > PDF=260400 MemberID=37 </weight>
<weight id="1854" MUR="1.0" MUF="1.0" PDF="260438" > PDF=260400 MemberID=38 </weight>
<weight id="1855" MUR="1.0" MUF="1.0" PDF="260439" > PDF=260400 MemberID=39 </weight>
<weight id="1856" MUR="1.0" MUF="1.0" PDF="260440" > PDF=260400 MemberID=40 </weight>
<weight id="1857" MUR="1.0" MUF="1.0" PDF="260441" > PDF=260400 MemberID=41 </weight>
<weight id="1858" MUR="1.0" MUF="1.0" PDF="260442" > PDF=260400 MemberID=42 </weight>
<weight id="1859" MUR="1.0" MUF="1.0" PDF="260443" > PDF=260400 MemberID=43 </weight>
<weight id="1860" MUR="1.0" MUF="1.0" PDF="260444" > PDF=260400 MemberID=44 </weight>
<weight id="1861" MUR="1.0" MUF="1.0" PDF="260445" > PDF=260400 MemberID=45 </weight>
<weight id="1862" MUR="1.0" MUF="1.0" PDF="260446" > PDF=260400 MemberID=46 </weight>
<weight id="1863" MUR="1.0" MUF="1.0" PDF="260447" > PDF=260400 MemberID=47 </weight>
<weight id="1864" MUR="1.0" MUF="1.0" PDF="260448" > PDF=260400 MemberID=48 </weight>
<weight id="1865" MUR="1.0" MUF="1.0" PDF="260449" > PDF=260400 MemberID=49 </weight>
<weight id="1866" MUR="1.0" MUF="1.0" PDF="260450" > PDF=260400 MemberID=50 </weight>
<weight id="1867" MUR="1.0" MUF="1.0" PDF="260451" > PDF=260400 MemberID=51 </weight>
<weight id="1868" MUR="1.0" MUF="1.0" PDF="260452" > PDF=260400 MemberID=52 </weight>
<weight id="1869" MUR="1.0" MUF="1.0" PDF="260453" > PDF=260400 MemberID=53 </weight>
<weight id="1870" MUR="1.0" MUF="1.0" PDF="260454" > PDF=260400 MemberID=54 </weight>
<weight id="1871" MUR="1.0" MUF="1.0" PDF="260455" > PDF=260400 MemberID=55 </weight>
<weight id="1872" MUR="1.0" MUF="1.0" PDF="260456" > PDF=260400 MemberID=56 </weight>
<weight id="1873" MUR="1.0" MUF="1.0" PDF="260457" > PDF=260400 MemberID=57 </weight>
<weight id="1874" MUR="1.0" MUF="1.0" PDF="260458" > PDF=260400 MemberID=58 </weight>
<weight id="1875" MUR="1.0" MUF="1.0" PDF="260459" > PDF=260400 MemberID=59 </weight>
<weight id="1876" MUR="1.0" MUF="1.0" PDF="260460" > PDF=260400 MemberID=60 </weight>
<weight id="1877" MUR="1.0" MUF="1.0" PDF="260461" > PDF=260400 MemberID=61 </weight>
<weight id="1878" MUR="1.0" MUF="1.0" PDF="260462" > PDF=260400 MemberID=62 </weight>
<weight id="1879" MUR="1.0" MUF="1.0" PDF="260463" > PDF=260400 MemberID=63 </weight>
<weight id="1880" MUR="1.0" MUF="1.0" PDF="260464" > PDF=260400 MemberID=64 </weight>
<weight id="1881" MUR="1.0" MUF="1.0" PDF="260465" > PDF=260400 MemberID=65 </weight>
<weight id="1882" MUR="1.0" MUF="1.0" PDF="260466" > PDF=260400 MemberID=66 </weight>
<weight id="1883" MUR="1.0" MUF="1.0" PDF="260467" > PDF=260400 MemberID=67 </weight>
<weight id="1884" MUR="1.0" MUF="1.0" PDF="260468" > PDF=260400 MemberID=68 </weight>
<weight id="1885" MUR="1.0" MUF="1.0" PDF="260469" > PDF=260400 MemberID=69 </weight>
<weight id="1886" MUR="1.0" MUF="1.0" PDF="260470" > PDF=260400 MemberID=70 </weight>
<weight id="1887" MUR="1.0" MUF="1.0" PDF="260471" > PDF=260400 MemberID=71 </weight>
<weight id="1888" MUR="1.0" MUF="1.0" PDF="260472" > PDF=260400 MemberID=72 </weight>
<weight id="1889" MUR="1.0" MUF="1.0" PDF="260473" > PDF=260400 MemberID=73 </weight>
<weight id="1890" MUR="1.0" MUF="1.0" PDF="260474" > PDF=260400 MemberID=74 </weight>
<weight id="1891" MUR="1.0" MUF="1.0" PDF="260475" > PDF=260400 MemberID=75 </weight>
<weight id="1892" MUR="1.0" MUF="1.0" PDF="260476" > PDF=260400 MemberID=76 </weight>
<weight id="1893" MUR="1.0" MUF="1.0" PDF="260477" > PDF=260400 MemberID=77 </weight>
<weight id="1894" MUR="1.0" MUF="1.0" PDF="260478" > PDF=260400 MemberID=78 </weight>
<weight id="1895" MUR="1.0" MUF="1.0" PDF="260479" > PDF=260400 MemberID=79 </weight>
<weight id="1896" MUR="1.0" MUF="1.0" PDF="260480" > PDF=260400 MemberID=80 </weight>
<weight id="1897" MUR="1.0" MUF="1.0" PDF="260481" > PDF=260400 MemberID=81 </weight>
<weight id="1898" MUR="1.0" MUF="1.0" PDF="260482" > PDF=260400 MemberID=82 </weight>
<weight id="1899" MUR="1.0" MUF="1.0" PDF="260483" > PDF=260400 MemberID=83 </weight>
<weight id="1900" MUR="1.0" MUF="1.0" PDF="260484" > PDF=260400 MemberID=84 </weight>
<weight id="1901" MUR="1.0" MUF="1.0" PDF="260485" > PDF=260400 MemberID=85 </weight>
<weight id="1902" MUR="1.0" MUF="1.0" PDF="260486" > PDF=260400 MemberID=86 </weight>
<weight id="1903" MUR="1.0" MUF="1.0" PDF="260487" > PDF=260400 MemberID=87 </weight>
<weight id="1904" MUR="1.0" MUF="1.0" PDF="260488" > PDF=260400 MemberID=88 </weight>
<weight id="1905" MUR="1.0" MUF="1.0" PDF="260489" > PDF=260400 MemberID=89 </weight>
<weight id="1906" MUR="1.0" MUF="1.0" PDF="260490" > PDF=260400 MemberID=90 </weight>
<weight id="1907" MUR="1.0" MUF="1.0" PDF="260491" > PDF=260400 MemberID=91 </weight>
<weight id="1908" MUR="1.0" MUF="1.0" PDF="260492" > PDF=260400 MemberID=92 </weight>
<weight id="1909" MUR="1.0" MUF="1.0" PDF="260493" > PDF=260400 MemberID=93 </weight>
<weight id="1910" MUR="1.0" MUF="1.0" PDF="260494" > PDF=260400 MemberID=94 </weight>
<weight id="1911" MUR="1.0" MUF="1.0" PDF="260495" > PDF=260400 MemberID=95 </weight>
<weight id="1912" MUR="1.0" MUF="1.0" PDF="260496" > PDF=260400 MemberID=96 </weight>
<weight id="1913" MUR="1.0" MUF="1.0" PDF="260497" > PDF=260400 MemberID=97 </weight>
<weight id="1914" MUR="1.0" MUF="1.0" PDF="260498" > PDF=260400 MemberID=98 </weight>
<weight id="1915" MUR="1.0" MUF="1.0" PDF="260499" > PDF=260400 MemberID=99 </weight>
<weight id="1916" MUR="1.0" MUF="1.0" PDF="260500" > PDF=260400 MemberID=100 </weight>
</weightgroup> # PDFSET -> PDF
<weight id="1917" MUR="1.0" MUF="1.0" PDF="262400" > PDF=262400 MemberID=0 </weight>
<weight id="1918" MUR="1.0" MUF="1.0" PDF="263400" > PDF=263400 MemberID=0 </weight>
<weightgroup name="NNPDF30_nlo_nf_4_pdfas" combine="replicas+as"> # 292000: NNPDF3.0 NLO global fit; mem=0 to mem=100 with alphas(MZ)=0.118, mem=0 ; average on replicas 1-100; mem=1-100 ; PDF replicas with  alphas(MZ)=0.118; mem=101 ; central value for alphas=0.117; mem=102 ; central value for alphas=0.119; maximum number of active flavors NF=4
<weight id="1919" MUR="1.0" MUF="1.0" PDF="292000" > PDF=292000 MemberID=0 </weight>
<weight id="1920" MUR="1.0" MUF="1.0" PDF="292001" > PDF=292000 MemberID=1 </weight>
<weight id="1921" MUR="1.0" MUF="1.0" PDF="292002" > PDF=292000 MemberID=2 </weight>
<weight id="1922" MUR="1.0" MUF="1.0" PDF="292003" > PDF=292000 MemberID=3 </weight>
<weight id="1923" MUR="1.0" MUF="1.0" PDF="292004" > PDF=292000 MemberID=4 </weight>
<weight id="1924" MUR="1.0" MUF="1.0" PDF="292005" > PDF=292000 MemberID=5 </weight>
<weight id="1925" MUR="1.0" MUF="1.0" PDF="292006" > PDF=292000 MemberID=6 </weight>
<weight id="1926" MUR="1.0" MUF="1.0" PDF="292007" > PDF=292000 MemberID=7 </weight>
<weight id="1927" MUR="1.0" MUF="1.0" PDF="292008" > PDF=292000 MemberID=8 </weight>
<weight id="1928" MUR="1.0" MUF="1.0" PDF="292009" > PDF=292000 MemberID=9 </weight>
<weight id="1929" MUR="1.0" MUF="1.0" PDF="292010" > PDF=292000 MemberID=10 </weight>
<weight id="1930" MUR="1.0" MUF="1.0" PDF="292011" > PDF=292000 MemberID=11 </weight>
<weight id="1931" MUR="1.0" MUF="1.0" PDF="292012" > PDF=292000 MemberID=12 </weight>
<weight id="1932" MUR="1.0" MUF="1.0" PDF="292013" > PDF=292000 MemberID=13 </weight>
<weight id="1933" MUR="1.0" MUF="1.0" PDF="292014" > PDF=292000 MemberID=14 </weight>
<weight id="1934" MUR="1.0" MUF="1.0" PDF="292015" > PDF=292000 MemberID=15 </weight>
<weight id="1935" MUR="1.0" MUF="1.0" PDF="292016" > PDF=292000 MemberID=16 </weight>
<weight id="1936" MUR="1.0" MUF="1.0" PDF="292017" > PDF=292000 MemberID=17 </weight>
<weight id="1937" MUR="1.0" MUF="1.0" PDF="292018" > PDF=292000 MemberID=18 </weight>
<weight id="1938" MUR="1.0" MUF="1.0" PDF="292019" > PDF=292000 MemberID=19 </weight>
<weight id="1939" MUR="1.0" MUF="1.0" PDF="292020" > PDF=292000 MemberID=20 </weight>
<weight id="1940" MUR="1.0" MUF="1.0" PDF="292021" > PDF=292000 MemberID=21 </weight>
<weight id="1941" MUR="1.0" MUF="1.0" PDF="292022" > PDF=292000 MemberID=22 </weight>
<weight id="1942" MUR="1.0" MUF="1.0" PDF="292023" > PDF=292000 MemberID=23 </weight>
<weight id="1943" MUR="1.0" MUF="1.0" PDF="292024" > PDF=292000 MemberID=24 </weight>
<weight id="1944" MUR="1.0" MUF="1.0" PDF="292025" > PDF=292000 MemberID=25 </weight>
<weight id="1945" MUR="1.0" MUF="1.0" PDF="292026" > PDF=292000 MemberID=26 </weight>
<weight id="1946" MUR="1.0" MUF="1.0" PDF="292027" > PDF=292000 MemberID=27 </weight>
<weight id="1947" MUR="1.0" MUF="1.0" PDF="292028" > PDF=292000 MemberID=28 </weight>
<weight id="1948" MUR="1.0" MUF="1.0" PDF="292029" > PDF=292000 MemberID=29 </weight>
<weight id="1949" MUR="1.0" MUF="1.0" PDF="292030" > PDF=292000 MemberID=30 </weight>
<weight id="1950" MUR="1.0" MUF="1.0" PDF="292031" > PDF=292000 MemberID=31 </weight>
<weight id="1951" MUR="1.0" MUF="1.0" PDF="292032" > PDF=292000 MemberID=32 </weight>
<weight id="1952" MUR="1.0" MUF="1.0" PDF="292033" > PDF=292000 MemberID=33 </weight>
<weight id="1953" MUR="1.0" MUF="1.0" PDF="292034" > PDF=292000 MemberID=34 </weight>
<weight id="1954" MUR="1.0" MUF="1.0" PDF="292035" > PDF=292000 MemberID=35 </weight>
<weight id="1955" MUR="1.0" MUF="1.0" PDF="292036" > PDF=292000 MemberID=36 </weight>
<weight id="1956" MUR="1.0" MUF="1.0" PDF="292037" > PDF=292000 MemberID=37 </weight>
<weight id="1957" MUR="1.0" MUF="1.0" PDF="292038" > PDF=292000 MemberID=38 </weight>
<weight id="1958" MUR="1.0" MUF="1.0" PDF="292039" > PDF=292000 MemberID=39 </weight>
<weight id="1959" MUR="1.0" MUF="1.0" PDF="292040" > PDF=292000 MemberID=40 </weight>
<weight id="1960" MUR="1.0" MUF="1.0" PDF="292041" > PDF=292000 MemberID=41 </weight>
<weight id="1961" MUR="1.0" MUF="1.0" PDF="292042" > PDF=292000 MemberID=42 </weight>
<weight id="1962" MUR="1.0" MUF="1.0" PDF="292043" > PDF=292000 MemberID=43 </weight>
<weight id="1963" MUR="1.0" MUF="1.0" PDF="292044" > PDF=292000 MemberID=44 </weight>
<weight id="1964" MUR="1.0" MUF="1.0" PDF="292045" > PDF=292000 MemberID=45 </weight>
<weight id="1965" MUR="1.0" MUF="1.0" PDF="292046" > PDF=292000 MemberID=46 </weight>
<weight id="1966" MUR="1.0" MUF="1.0" PDF="292047" > PDF=292000 MemberID=47 </weight>
<weight id="1967" MUR="1.0" MUF="1.0" PDF="292048" > PDF=292000 MemberID=48 </weight>
<weight id="1968" MUR="1.0" MUF="1.0" PDF="292049" > PDF=292000 MemberID=49 </weight>
<weight id="1969" MUR="1.0" MUF="1.0" PDF="292050" > PDF=292000 MemberID=50 </weight>
<weight id="1970" MUR="1.0" MUF="1.0" PDF="292051" > PDF=292000 MemberID=51 </weight>
<weight id="1971" MUR="1.0" MUF="1.0" PDF="292052" > PDF=292000 MemberID=52 </weight>
<weight id="1972" MUR="1.0" MUF="1.0" PDF="292053" > PDF=292000 MemberID=53 </weight>
<weight id="1973" MUR="1.0" MUF="1.0" PDF="292054" > PDF=292000 MemberID=54 </weight>
<weight id="1974" MUR="1.0" MUF="1.0" PDF="292055" > PDF=292000 MemberID=55 </weight>
<weight id="1975" MUR="1.0" MUF="1.0" PDF="292056" > PDF=292000 MemberID=56 </weight>
<weight id="1976" MUR="1.0" MUF="1.0" PDF="292057" > PDF=292000 MemberID=57 </weight>
<weight id="1977" MUR="1.0" MUF="1.0" PDF="292058" > PDF=292000 MemberID=58 </weight>
<weight id="1978" MUR="1.0" MUF="1.0" PDF="292059" > PDF=292000 MemberID=59 </weight>
<weight id="1979" MUR="1.0" MUF="1.0" PDF="292060" > PDF=292000 MemberID=60 </weight>
<weight id="1980" MUR="1.0" MUF="1.0" PDF="292061" > PDF=292000 MemberID=61 </weight>
<weight id="1981" MUR="1.0" MUF="1.0" PDF="292062" > PDF=292000 MemberID=62 </weight>
<weight id="1982" MUR="1.0" MUF="1.0" PDF="292063" > PDF=292000 MemberID=63 </weight>
<weight id="1983" MUR="1.0" MUF="1.0" PDF="292064" > PDF=292000 MemberID=64 </weight>
<weight id="1984" MUR="1.0" MUF="1.0" PDF="292065" > PDF=292000 MemberID=65 </weight>
<weight id="1985" MUR="1.0" MUF="1.0" PDF="292066" > PDF=292000 MemberID=66 </weight>
<weight id="1986" MUR="1.0" MUF="1.0" PDF="292067" > PDF=292000 MemberID=67 </weight>
<weight id="1987" MUR="1.0" MUF="1.0" PDF="292068" > PDF=292000 MemberID=68 </weight>
<weight id="1988" MUR="1.0" MUF="1.0" PDF="292069" > PDF=292000 MemberID=69 </weight>
<weight id="1989" MUR="1.0" MUF="1.0" PDF="292070" > PDF=292000 MemberID=70 </weight>
<weight id="1990" MUR="1.0" MUF="1.0" PDF="292071" > PDF=292000 MemberID=71 </weight>
<weight id="1991" MUR="1.0" MUF="1.0" PDF="292072" > PDF=292000 MemberID=72 </weight>
<weight id="1992" MUR="1.0" MUF="1.0" PDF="292073" > PDF=292000 MemberID=73 </weight>
<weight id="1993" MUR="1.0" MUF="1.0" PDF="292074" > PDF=292000 MemberID=74 </weight>
<weight id="1994" MUR="1.0" MUF="1.0" PDF="292075" > PDF=292000 MemberID=75 </weight>
<weight id="1995" MUR="1.0" MUF="1.0" PDF="292076" > PDF=292000 MemberID=76 </weight>
<weight id="1996" MUR="1.0" MUF="1.0" PDF="292077" > PDF=292000 MemberID=77 </weight>
<weight id="1997" MUR="1.0" MUF="1.0" PDF="292078" > PDF=292000 MemberID=78 </weight>
<weight id="1998" MUR="1.0" MUF="1.0" PDF="292079" > PDF=292000 MemberID=79 </weight>
<weight id="1999" MUR="1.0" MUF="1.0" PDF="292080" > PDF=292000 MemberID=80 </weight>
<weight id="2000" MUR="1.0" MUF="1.0" PDF="292081" > PDF=292000 MemberID=81 </weight>
<weight id="2001" MUR="1.0" MUF="1.0" PDF="292082" > PDF=292000 MemberID=82 </weight>
<weight id="2002" MUR="1.0" MUF="1.0" PDF="292083" > PDF=292000 MemberID=83 </weight>
<weight id="2003" MUR="1.0" MUF="1.0" PDF="292084" > PDF=292000 MemberID=84 </weight>
<weight id="2004" MUR="1.0" MUF="1.0" PDF="292085" > PDF=292000 MemberID=85 </weight>
<weight id="2005" MUR="1.0" MUF="1.0" PDF="292086" > PDF=292000 MemberID=86 </weight>
<weight id="2006" MUR="1.0" MUF="1.0" PDF="292087" > PDF=292000 MemberID=87 </weight>
<weight id="2007" MUR="1.0" MUF="1.0" PDF="292088" > PDF=292000 MemberID=88 </weight>
<weight id="2008" MUR="1.0" MUF="1.0" PDF="292089" > PDF=292000 MemberID=89 </weight>
<weight id="2009" MUR="1.0" MUF="1.0" PDF="292090" > PDF=292000 MemberID=90 </weight>
<weight id="2010" MUR="1.0" MUF="1.0" PDF="292091" > PDF=292000 MemberID=91 </weight>
<weight id="2011" MUR="1.0" MUF="1.0" PDF="292092" > PDF=292000 MemberID=92 </weight>
<weight id="2012" MUR="1.0" MUF="1.0" PDF="292093" > PDF=292000 MemberID=93 </weight>
<weight id="2013" MUR="1.0" MUF="1.0" PDF="292094" > PDF=292000 MemberID=94 </weight>
<weight id="2014" MUR="1.0" MUF="1.0" PDF="292095" > PDF=292000 MemberID=95 </weight>
<weight id="2015" MUR="1.0" MUF="1.0" PDF="292096" > PDF=292000 MemberID=96 </weight>
<weight id="2016" MUR="1.0" MUF="1.0" PDF="292097" > PDF=292000 MemberID=97 </weight>
<weight id="2017" MUR="1.0" MUF="1.0" PDF="292098" > PDF=292000 MemberID=98 </weight>
<weight id="2018" MUR="1.0" MUF="1.0" PDF="292099" > PDF=292000 MemberID=99 </weight>
<weight id="2019" MUR="1.0" MUF="1.0" PDF="292100" > PDF=292000 MemberID=100 </weight>
<weight id="2020" MUR="1.0" MUF="1.0" PDF="292101" > PDF=292000 MemberID=101 </weight>
<weight id="2021" MUR="1.0" MUF="1.0" PDF="292102" > PDF=292000 MemberID=102 </weight>
</weightgroup> # PDFSET -> PDF
<weight id="2022" MUR="1.0" MUF="1.0" PDF="292400" > PDF=292400 MemberID=0 </weight>
</initrwgt>
<MGGenerationInfo>
#  Number of Events        : 40
#  Integrated weight (pb)  : 15.8224032545
</MGGenerationInfo>
<madspin>
set seed 77544695
import /local-scratch/xulyu/genproductions/bin/MadGraph5_aMCatNLO/tZ_b_LH_M600/tZ_b_LH_M600_gridpack/work//unweighted_events.lhe.gz
set ms_dir ./madspingrid
set max_running_process 1
set Nevents_for_max_weigth 250 
set max_weight_ps_point 400  
decay t > w+ b, w+ > all all
decay t~ > w- b~, w- > all all
decay z > all all
launch
</madspin>
</header>
<init>
2212 2212 6.500000e+03 6.500000e+03 0 0 325500 325500 -3 2
4.725224E+00 8.833868E-02 1.358172E+00 2
1.056798E+01 2.496474E-01 1.358172E+00 1
<generator name='MadGraph5_aMC@NLO' version='2.6.5'>please cite 1405.0301 </generator>
</init>
<event>
13      2 +3.9556008E-01 2.86519000e+02 7.81860800e-03 1.07929800e-01
        1 -1    0    0  501    0 +0.0000000000e+00 +0.0000000000e+00 +9.5000696361e+02 9.5000696362e+02 5.0400000000e-03 0.0000e+00 -1.0000e+00
       21 -1    0    0  502  503 +0.0000000000e+00 +0.0000000000e+00 -4.0254990114e+02 4.0254990114e+02 0.0000000000e+00 0.0000e+00 -1.0000e+00
 -8000001  2    1    2    0  503 +8.0521403128e+01 -2.4337130519e+01 +5.9583878342e+02 8.4976439672e+02 5.9999973485e+02 0.0000e+00 0.0000e+00
        2  1    1    2  501    0 +4.8913553509e+01 -1.2635677488e+01 +2.0753444243e+02 2.1359480533e+02 2.5500000000e-03 0.0000e+00 -1.0000e+00
        5  1    1    2  502    0 -1.2943495664e+02 +3.6972808007e+01 -2.5591616339e+02 2.8919766271e+02 4.6700000000e+00 0.0000e+00 -1.0000e+00
       -6  2    3    3    0  503 -2.0394628008e+02 -9.5856097036e+01 +3.8832508762e+02 4.8071980940e+02 1.7179256379e+02 0.0000e+00 0.0000e+00
       -5  1    6    6    0  503 -5.9455349176e+01 +2.9915124814e+01 +1.5381928854e+02 1.6766644168e+02 4.6700000000e+00 0.0000e+00 1.0000e+00
      -24  2    6    6    0    0 -1.4449093090e+02 -1.2577122185e+02 +2.3450579908e+02 3.1305336771e+02 7.9456981298e+01 0.0000e+00 0.0000e+00
      -14  1    8    8    0    0 -1.4629180311e+02 -1.3434814815e+02 +2.2473912614e+02 2.9993064430e+02 0.0000000000e+00 0.0000e+00 1.0000e+00
       13  1    8    8    0    0 +1.8008722101e+00 +8.5769263044e+00 +9.7666729348e+00 1.3122723414e+01 1.0566000000e-01 0.0000e+00 -1.0000e+00
       23  2    3    3    0    0 +2.8446768321e+02 +7.1518966517e+01 +2.0751369580e+02 3.6904458732e+02 8.4232702228e+01 0.0000e+00 0.0000e+00
       16  1   11   11    0    0 +1.7005277154e+01 +2.9979840938e+01 +2.5340537469e+01 4.2779821797e+01 0.0000000000e+00 0.0000e+00 -1.0000e+00
      -16  1   11   11    0    0 +2.6746240605e+02 +4.1539125579e+01 +1.8217315834e+02 3.2626476553e+02 0.0000000000e+00 0.0000e+00 1.0000e+00
<mgrwt>
<rscale>  1 0.12031098e+03</rscale>
<asrwt>0</asrwt>
<pdfrwt beam="1">  1       21 0.61930754e-01 0.28651904e+03</pdfrwt>
<pdfrwt beam="2">  1        1 0.14615492e+00 0.50519264e+02</pdfrwt>
<totfact> 0.56576187e+02</totfact>
</mgrwt>
<rwgt>
<wgt id='1001'> +3.9556008E-01 </wgt>
<wgt id='1002'> +2.5011472E-01 </wgt>
<wgt id='1003'> +2.5009989E-01 </wgt>
<wgt id='1004'> +2.9406213E-01 </wgt>
<wgt id='1005'> +2.2492759E-01 </wgt>
<wgt id='1006'> +3.5811179E-01 </wgt>
<wgt id='1007'> +2.3139169E-01 </wgt>
<wgt id='1008'> +2.3137852E-01 </wgt>
<wgt id='1009'> +2.7018340E-01 </wgt>
<wgt id='1010'> +2.0895536E-01 </wgt>
<wgt id='1011'> +4.4207432E-01 </wgt>
<wgt id='1012'> +2.7222055E-01 </wgt>
<wgt id='1013'> +2.7220364E-01 </wgt>
<wgt id='1014'> +3.2270663E-01 </wgt>
<wgt id='1015'> +2.4360866E-01 </wgt>
<wgt id='1016'> +3.6280874E-01 </wgt>
<wgt id='1017'> +2.3243783E-01 </wgt>
<wgt id='1018'> +2.3242436E-01 </wgt>
<wgt id='1019'> +2.7220364E-01 </wgt>
<wgt id='1020'> +2.0960570E-01 </wgt>
<wgt id='1021'> +3.2846106E-01 </wgt>
<wgt id='1022'> +2.1503805E-01 </wgt>
<wgt id='1023'> +2.1502610E-01 </wgt>
<wgt id='1024'> +2.5009989E-01 </wgt>
<wgt id='1025'> +1.9472149E-01 </wgt>
<wgt id='1026'> +4.0547171E-01 </wgt>
<wgt id='1027'> +2.5298133E-01 </wgt>
<wgt id='1028'> +2.5296595E-01 </wgt>
<wgt id='1029'> +2.9871892E-01 </wgt>
<wgt id='1030'> +2.2701423E-01 </wgt>
<wgt id='1031'> +4.3381096E-01 </wgt>
<wgt id='1032'> +2.7019989E-01 </wgt>
<wgt id='1033'> +2.7018340E-01 </wgt>
<wgt id='1034'> +3.1905967E-01 </wgt>
<wgt id='1035'> +2.4228833E-01 </wgt>
<wgt id='1036'> +3.9274139E-01 </wgt>
<wgt id='1037'> +2.4997333E-01 </wgt>
<wgt id='1038'> +2.4995867E-01 </wgt>
<wgt id='1039'> +2.9315106E-01 </wgt>
<wgt id='1040'> +2.2508330E-01 </wgt>
<wgt id='1041'> +4.8482312E-01 </wgt>
<wgt id='1042'> +2.9408091E-01 </wgt>
<wgt id='1043'> +2.9406213E-01 </wgt>
<wgt id='1044'> +3.5013917E-01 </wgt>
<wgt id='1045'> +2.6241126E-01 </wgt>
<wgt id='1046'> +3.9556008E-01 </wgt>
<wgt id='1047'> +3.9556008E-01 </wgt>
<wgt id='1048'> +3.9556008E-01 </wgt>
<wgt id='1049'> +3.9649734E-01 </wgt>
<wgt id='1050'> +3.9575545E-01 </wgt>
<wgt id='1051'> +3.9669087E-01 </wgt>
<wgt id='1052'> +3.9534200E-01 </wgt>
<wgt id='1053'> +3.9619025E-01 </wgt>
<wgt id='1054'> +3.9505364E-01 </wgt>
<wgt id='1055'> +3.9294203E-01 </wgt>
<wgt id='1056'> +3.9407235E-01 </wgt>
<wgt id='1057'> +3.9457023E-01 </wgt>
<wgt id='1058'> +3.9558309E-01 </wgt>
<wgt id='1059'> +3.9607209E-01 </wgt>
<wgt id='1060'> +3.9523313E-01 </wgt>
<wgt id='1061'> +3.9609711E-01 </wgt>
<wgt id='1062'> +3.9647902E-01 </wgt>
<wgt id='1063'> +3.9563216E-01 </wgt>
<wgt id='1064'> +3.9534934E-01 </wgt>
<wgt id='1065'> +3.9759399E-01 </wgt>
<wgt id='1066'> +3.9307067E-01 </wgt>
<wgt id='1067'> +3.9629486E-01 </wgt>
<wgt id='1068'> +3.9616045E-01 </wgt>
<wgt id='1069'> +3.9452619E-01 </wgt>
<wgt id='1070'> +3.9558711E-01 </wgt>
<wgt id='1071'> +3.9453758E-01 </wgt>
<wgt id='1072'> +3.9651382E-01 </wgt>
<wgt id='1073'> +3.9500462E-01 </wgt>
<wgt id='1074'> +3.9636362E-01 </wgt>
<wgt id='1075'> +3.9448620E-01 </wgt>
<wgt id='1076'> +3.9611601E-01 </wgt>
<wgt id='1077'> +3.9741845E-01 </wgt>
<wgt id='1078'> +3.9463751E-01 </wgt>
<wgt id='1079'> +3.9864110E-01 </wgt>
<wgt id='1080'> +3.9664814E-01 </wgt>
<wgt id='1081'> +3.9711017E-01 </wgt>
<wgt id='1082'> +3.9660591E-01 </wgt>
<wgt id='1083'> +3.9466713E-01 </wgt>
<wgt id='1084'> +3.9340047E-01 </wgt>
<wgt id='1085'> +3.9778924E-01 </wgt>
<wgt id='1086'> +3.9416266E-01 </wgt>
<wgt id='1087'> +3.9477553E-01 </wgt>
<wgt id='1088'> +3.9535941E-01 </wgt>
<wgt id='1089'> +3.9578845E-01 </wgt>
<wgt id='1090'> +3.9637667E-01 </wgt>
<wgt id='1091'> +3.9503666E-01 </wgt>
<wgt id='1092'> +3.9505891E-01 </wgt>
<wgt id='1093'> +3.9664904E-01 </wgt>
<wgt id='1094'> +3.9526525E-01 </wgt>
<wgt id='1095'> +3.9541836E-01 </wgt>
<wgt id='1096'> +3.9483692E-01 </wgt>
<wgt id='1097'> +3.9435445E-01 </wgt>
<wgt id='1098'> +3.9433761E-01 </wgt>
<wgt id='1099'> +3.9509121E-01 </wgt>
<wgt id='1100'> +3.9513728E-01 </wgt>
<wgt id='1101'> +3.9602278E-01 </wgt>
<wgt id='1102'> +3.9597691E-01 </wgt>
<wgt id='1103'> +3.9717410E-01 </wgt>
<wgt id='1104'> +3.9443707E-01 </wgt>
<wgt id='1105'> +3.9550678E-01 </wgt>
<wgt id='1106'> +3.9692313E-01 </wgt>
<wgt id='1107'> +3.9521164E-01 </wgt>
<wgt id='1108'> +3.9538143E-01 </wgt>
<wgt id='1109'> +3.9690627E-01 </wgt>
<wgt id='1110'> +3.9659910E-01 </wgt>
<wgt id='1111'> +3.9544798E-01 </wgt>
<wgt id='1112'> +3.9547314E-01 </wgt>
<wgt id='1113'> +3.9584521E-01 </wgt>
<wgt id='1114'> +3.9524277E-01 </wgt>
<wgt id='1115'> +3.9555193E-01 </wgt>
<wgt id='1116'> +3.9634065E-01 </wgt>
<wgt id='1117'> +3.9555394E-01 </wgt>
<wgt id='1118'> +3.9561495E-01 </wgt>
<wgt id='1119'> +3.9577750E-01 </wgt>
<wgt id='1120'> +3.9531293E-01 </wgt>
<wgt id='1121'> +3.9578017E-01 </wgt>
<wgt id='1122'> +3.9546423E-01 </wgt>
<wgt id='1123'> +3.9500774E-01 </wgt>
<wgt id='1124'> +3.9512319E-01 </wgt>
<wgt id='1125'> +3.9617335E-01 </wgt>
<wgt id='1126'> +3.9533501E-01 </wgt>
<wgt id='1127'> +3.9506147E-01 </wgt>
<wgt id='1128'> +3.9589172E-01 </wgt>
<wgt id='1129'> +3.9557692E-01 </wgt>
<wgt id='1130'> +3.9570707E-01 </wgt>
<wgt id='1131'> +3.9619852E-01 </wgt>
<wgt id='1132'> +3.9550373E-01 </wgt>
<wgt id='1133'> +3.9562605E-01 </wgt>
<wgt id='1134'> +3.9543284E-01 </wgt>
<wgt id='1135'> +3.9595620E-01 </wgt>
<wgt id='1136'> +3.9572862E-01 </wgt>
<wgt id='1137'> +3.9564408E-01 </wgt>
<wgt id='1138'> +3.9572446E-01 </wgt>
<wgt id='1139'> +3.9565302E-01 </wgt>
<wgt id='1140'> +3.9591234E-01 </wgt>
<wgt id='1141'> +3.9552583E-01 </wgt>
<wgt id='1142'> +3.9602555E-01 </wgt>
<wgt id='1143'> +3.9557159E-01 </wgt>
<wgt id='1144'> +3.9546784E-01 </wgt>
<wgt id='1145'> +3.9552688E-01 </wgt>
<wgt id='1146'> +3.9542025E-01 </wgt>
<wgt id='1147'> +3.9575833E-01 </wgt>
<wgt id='1148'> +3.9556008E-01 </wgt>
<wgt id='1149'> +3.7912816E-01 </wgt>
<wgt id='1150'> +3.8307915E-01 </wgt>
<wgt id='1151'> +3.7952448E-01 </wgt>
<wgt id='1152'> +3.7599839E-01 </wgt>
<wgt id='1153'> +3.7062091E-01 </wgt>
<wgt id='1154'> +3.8215617E-01 </wgt>
<wgt id='1155'> +3.9207549E-01 </wgt>
<wgt id='1156'> +3.8000378E-01 </wgt>
<wgt id='1157'> +3.7971775E-01 </wgt>
<wgt id='1158'> +3.8981173E-01 </wgt>
<wgt id='1159'> +3.5726223E-01 </wgt>
<wgt id='1160'> +3.6917890E-01 </wgt>
<wgt id='1161'> +3.8363651E-01 </wgt>
<wgt id='1162'> +3.6765240E-01 </wgt>
<wgt id='1163'> +3.8150605E-01 </wgt>
<wgt id='1164'> +3.8177429E-01 </wgt>
<wgt id='1165'> +3.7495463E-01 </wgt>
<wgt id='1166'> +3.7761619E-01 </wgt>
<wgt id='1167'> +3.8698404E-01 </wgt>
<wgt id='1168'> +3.7523818E-01 </wgt>
<wgt id='1169'> +3.7375254E-01 </wgt>
<wgt id='1170'> +3.8650381E-01 </wgt>
<wgt id='1171'> +3.8552141E-01 </wgt>
<wgt id='1172'> +3.8150253E-01 </wgt>
<wgt id='1173'> +3.7465261E-01 </wgt>
<wgt id='1174'> +3.8580529E-01 </wgt>
<wgt id='1175'> +3.8013053E-01 </wgt>
<wgt id='1176'> +3.5476189E-01 </wgt>
<wgt id='1177'> +3.8735546E-01 </wgt>
<wgt id='1178'> +3.7012582E-01 </wgt>
<wgt id='1179'> +3.7695501E-01 </wgt>
<wgt id='1180'> +3.8532310E-01 </wgt>
<wgt id='1181'> +3.8622418E-01 </wgt>
<wgt id='1182'> +3.9455736E-01 </wgt>
<wgt id='1183'> +3.8318589E-01 </wgt>
<wgt id='1184'> +3.7587732E-01 </wgt>
<wgt id='1185'> +3.9180440E-01 </wgt>
<wgt id='1186'> +3.7638134E-01 </wgt>
<wgt id='1187'> +3.7368783E-01 </wgt>
<wgt id='1188'> +3.7327150E-01 </wgt>
<wgt id='1189'> +3.8090192E-01 </wgt>
<wgt id='1190'> +3.7691421E-01 </wgt>
<wgt id='1191'> +3.8813818E-01 </wgt>
<wgt id='1192'> +3.7901842E-01 </wgt>
<wgt id='1193'> +3.7601770E-01 </wgt>
<wgt id='1194'> +3.6284282E-01 </wgt>
<wgt id='1195'> +3.8245793E-01 </wgt>
<wgt id='1196'> +3.8987444E-01 </wgt>
<wgt id='1197'> +3.7562624E-01 </wgt>
<wgt id='1198'> +3.8309514E-01 </wgt>
<wgt id='1199'> +3.7885783E-01 </wgt>
<wgt id='1200'> +3.7947445E-01 </wgt>
<wgt id='1201'> +3.8673115E-01 </wgt>
<wgt id='1202'> +3.7959205E-01 </wgt>
<wgt id='1203'> +3.8339873E-01 </wgt>
<wgt id='1204'> +3.8132732E-01 </wgt>
<wgt id='1205'> +3.7863703E-01 </wgt>
<wgt id='1206'> +3.8446402E-01 </wgt>
<wgt id='1207'> +3.9581364E-01 </wgt>
<wgt id='1208'> +3.7220624E-01 </wgt>
<wgt id='1209'> +3.8990362E-01 </wgt>
<wgt id='1210'> +3.8187797E-01 </wgt>
<wgt id='1211'> +3.8675005E-01 </wgt>
<wgt id='1212'> +3.7300742E-01 </wgt>
<wgt id='1213'> +3.8335487E-01 </wgt>
<wgt id='1214'> +3.8103587E-01 </wgt>
<wgt id='1215'> +3.7029836E-01 </wgt>
<wgt id='1216'> +3.7544211E-01 </wgt>
<wgt id='1217'> +3.8023378E-01 </wgt>
<wgt id='1218'> +3.8038432E-01 </wgt>
<wgt id='1219'> +3.8052412E-01 </wgt>
<wgt id='1220'> +3.8489442E-01 </wgt>
<wgt id='1221'> +3.5491395E-01 </wgt>
<wgt id='1222'> +3.8012861E-01 </wgt>
<wgt id='1223'> +3.6769052E-01 </wgt>
<wgt id='1224'> +3.7575864E-01 </wgt>
<wgt id='1225'> +3.7761293E-01 </wgt>
<wgt id='1226'> +3.8179083E-01 </wgt>
<wgt id='1227'> +3.8878143E-01 </wgt>
<wgt id='1228'> +3.8856395E-01 </wgt>
<wgt id='1229'> +3.7380334E-01 </wgt>
<wgt id='1230'> +3.8477792E-01 </wgt>
<wgt id='1231'> +3.7495463E-01 </wgt>
<wgt id='1232'> +3.5266479E-01 </wgt>
<wgt id='1233'> +3.7571367E-01 </wgt>
<wgt id='1234'> +3.8103427E-01 </wgt>
<wgt id='1235'> +3.8720032E-01 </wgt>
<wgt id='1236'> +3.8556830E-01 </wgt>
<wgt id='1237'> +3.8000274E-01 </wgt>
<wgt id='1238'> +3.4785090E-01 </wgt>
<wgt id='1239'> +3.9267394E-01 </wgt>
<wgt id='1240'> +3.8840729E-01 </wgt>
<wgt id='1241'> +3.7566649E-01 </wgt>
<wgt id='1242'> +3.6983665E-01 </wgt>
<wgt id='1243'> +3.7933040E-01 </wgt>
<wgt id='1244'> +3.8173745E-01 </wgt>
<wgt id='1245'> +3.8551154E-01 </wgt>
<wgt id='1246'> +3.7312439E-01 </wgt>
<wgt id='1247'> +3.7593551E-01 </wgt>
<wgt id='1248'> +3.8171065E-01 </wgt>
<wgt id='1249'> +3.7882561E-01 </wgt>
<wgt id='1250'> +3.8296924E-01 </wgt>
<wgt id='1251'> +3.7789800E-01 </wgt>
<wgt id='1252'> +3.8611028E-01 </wgt>
<wgt id='1253'> +3.8698518E-01 </wgt>
<wgt id='1254'> +3.5848138E-01 </wgt>
<wgt id='1255'> +3.8093058E-01 </wgt>
<wgt id='1256'> +3.8071063E-01 </wgt>
<wgt id='1257'> +3.8103211E-01 </wgt>
<wgt id='1258'> +3.8239942E-01 </wgt>
<wgt id='1259'> +3.8019091E-01 </wgt>
<wgt id='1260'> +3.8063570E-01 </wgt>
<wgt id='1261'> +3.8131977E-01 </wgt>
<wgt id='1262'> +3.8088631E-01 </wgt>
<wgt id='1263'> +3.8095365E-01 </wgt>
<wgt id='1264'> +3.8548763E-01 </wgt>
<wgt id='1265'> +3.7778715E-01 </wgt>
<wgt id='1266'> +3.8086971E-01 </wgt>
<wgt id='1267'> +3.8099754E-01 </wgt>
<wgt id='1268'> +3.8276592E-01 </wgt>
<wgt id='1269'> +3.7908310E-01 </wgt>
<wgt id='1270'> +3.7897033E-01 </wgt>
<wgt id='1271'> +3.8278479E-01 </wgt>
<wgt id='1272'> +3.8306109E-01 </wgt>
<wgt id='1273'> +3.7894508E-01 </wgt>
<wgt id='1274'> +3.8009692E-01 </wgt>
<wgt id='1275'> +3.8184162E-01 </wgt>
<wgt id='1276'> +3.8193561E-01 </wgt>
<wgt id='1277'> +3.7969981E-01 </wgt>
<wgt id='1278'> +3.7710651E-01 </wgt>
<wgt id='1279'> +3.8394587E-01 </wgt>
<wgt id='1280'> +3.8116506E-01 </wgt>
<wgt id='1281'> +3.7917144E-01 </wgt>
<wgt id='1282'> +3.8238410E-01 </wgt>
<wgt id='1283'> +3.7847213E-01 </wgt>
<wgt id='1284'> +3.7959852E-01 </wgt>
<wgt id='1285'> +3.8033982E-01 </wgt>
<wgt id='1286'> +3.7932358E-01 </wgt>
<wgt id='1287'> +3.8097243E-01 </wgt>
<wgt id='1288'> +3.8097832E-01 </wgt>
<wgt id='1289'> +3.8068664E-01 </wgt>
<wgt id='1290'> +3.8191601E-01 </wgt>
<wgt id='1291'> +3.8057127E-01 </wgt>
<wgt id='1292'> +3.8292619E-01 </wgt>
<wgt id='1293'> +3.7828882E-01 </wgt>
<wgt id='1294'> +3.7938571E-01 </wgt>
<wgt id='1295'> +3.8068253E-01 </wgt>
<wgt id='1296'> +3.8972404E-01 </wgt>
<wgt id='1297'> +3.9065244E-01 </wgt>
<wgt id='1298'> +3.8897720E-01 </wgt>
<wgt id='1299'> +3.9036172E-01 </wgt>
<wgt id='1300'> +3.8901634E-01 </wgt>
<wgt id='1301'> +3.8940087E-01 </wgt>
<wgt id='1302'> +3.9019437E-01 </wgt>
<wgt id='1303'> +3.9149699E-01 </wgt>
<wgt id='1304'> +3.8852551E-01 </wgt>
<wgt id='1305'> +3.8979784E-01 </wgt>
<wgt id='1306'> +3.8963637E-01 </wgt>
<wgt id='1307'> +3.9017317E-01 </wgt>
<wgt id='1308'> +3.8944855E-01 </wgt>
<wgt id='1309'> +3.8675049E-01 </wgt>
<wgt id='1310'> +3.9375067E-01 </wgt>
<wgt id='1311'> +3.9067350E-01 </wgt>
<wgt id='1312'> +3.8937845E-01 </wgt>
<wgt id='1313'> +3.8820721E-01 </wgt>
<wgt id='1314'> +3.9153619E-01 </wgt>
<wgt id='1315'> +3.8692320E-01 </wgt>
<wgt id='1316'> +3.9186235E-01 </wgt>
<wgt id='1317'> +3.8783794E-01 </wgt>
<wgt id='1318'> +3.9316678E-01 </wgt>
<wgt id='1319'> +3.8851928E-01 </wgt>
<wgt id='1320'> +3.9034943E-01 </wgt>
<wgt id='1321'> +3.8616084E-01 </wgt>
<wgt id='1322'> +3.9137044E-01 </wgt>
<wgt id='1323'> +3.8549695E-01 </wgt>
<wgt id='1324'> +3.8716837E-01 </wgt>
<wgt id='1325'> +3.8996053E-01 </wgt>
<wgt id='1326'> +3.8829819E-01 </wgt>
<wgt id='1327'> +3.8846496E-01 </wgt>
<wgt id='1328'> +3.9017643E-01 </wgt>
<wgt id='1329'> +3.8917714E-01 </wgt>
<wgt id='1330'> +3.8998360E-01 </wgt>
<wgt id='1331'> +3.9013935E-01 </wgt>
<wgt id='1332'> +3.8888977E-01 </wgt>
<wgt id='1333'> +3.9275898E-01 </wgt>
<wgt id='1334'> +3.8749340E-01 </wgt>
<wgt id='1335'> +3.9197877E-01 </wgt>
<wgt id='1336'> +3.8887390E-01 </wgt>
<wgt id='1337'> +3.8972404E-01 </wgt>
<wgt id='1338'> +3.9010362E-01 </wgt>
<wgt id='1339'> +3.8996851E-01 </wgt>
<wgt id='1340'> +3.8983104E-01 </wgt>
<wgt id='1341'> +3.8956455E-01 </wgt>
<wgt id='1342'> +3.8945502E-01 </wgt>
<wgt id='1343'> +3.8932594E-01 </wgt>
<wgt id='1344'> +3.9201048E-01 </wgt>
<wgt id='1345'> +3.9311005E-01 </wgt>
<wgt id='1346'> +3.9091832E-01 </wgt>
<wgt id='1347'> +3.9148546E-01 </wgt>
<wgt id='1348'> +3.9238202E-01 </wgt>
<wgt id='1349'> +3.9329507E-01 </wgt>
<wgt id='1350'> +3.9089822E-01 </wgt>
<wgt id='1351'> +3.9195049E-01 </wgt>
<wgt id='1352'> +3.9209002E-01 </wgt>
<wgt id='1353'> +3.9278551E-01 </wgt>
<wgt id='1354'> +3.9142654E-01 </wgt>
<wgt id='1355'> +3.9581116E-01 </wgt>
<wgt id='1356'> +3.8902150E-01 </wgt>
<wgt id='1357'> +3.9397641E-01 </wgt>
<wgt id='1358'> +3.9082570E-01 </wgt>
<wgt id='1359'> +3.9138168E-01 </wgt>
<wgt id='1360'> +3.9365007E-01 </wgt>
<wgt id='1361'> +3.9082701E-01 </wgt>
<wgt id='1362'> +3.9334109E-01 </wgt>
<wgt id='1363'> +3.9440116E-01 </wgt>
<wgt id='1364'> +3.8819372E-01 </wgt>
<wgt id='1365'> +3.8992858E-01 </wgt>
<wgt id='1366'> +3.9279967E-01 </wgt>
<wgt id='1367'> +3.8776449E-01 </wgt>
<wgt id='1368'> +3.9387031E-01 </wgt>
<wgt id='1369'> +3.9158393E-01 </wgt>
<wgt id='1370'> +3.9183507E-01 </wgt>
<wgt id='1371'> +3.9089318E-01 </wgt>
<wgt id='1372'> +3.8756114E-01 </wgt>
<wgt id='1373'> +3.9439426E-01 </wgt>
<wgt id='1374'> +3.9142185E-01 </wgt>
<wgt id='1375'> +3.9019137E-01 </wgt>
<wgt id='1376'> +3.9234072E-01 </wgt>
<wgt id='1377'> +3.9200439E-01 </wgt>
<wgt id='1378'> +3.9211012E-01 </wgt>
<wgt id='1379'> +3.9030277E-01 </wgt>
<wgt id='1380'> +3.9256064E-01 </wgt>
<wgt id='1381'> +3.8907998E-01 </wgt>
<wgt id='1382'> +3.9393572E-01 </wgt>
<wgt id='1383'> +3.9097581E-01 </wgt>
<wgt id='1384'> +3.9472229E-01 </wgt>
<wgt id='1385'> +3.9201048E-01 </wgt>
<wgt id='1386'> +3.9234367E-01 </wgt>
<wgt id='1387'> +3.9223532E-01 </wgt>
<wgt id='1388'> +3.9211201E-01 </wgt>
<wgt id='1389'> +3.9184456E-01 </wgt>
<wgt id='1390'> +3.9171365E-01 </wgt>
<wgt id='1391'> +3.9155754E-01 </wgt>
<wgt id='1392'> +4.0866494E-01 </wgt>
<wgt id='1393'> +4.0861028E-01 </wgt>
<wgt id='1394'> +4.0875680E-01 </wgt>
<wgt id='1395'> +4.0917174E-01 </wgt>
<wgt id='1396'> +4.0830750E-01 </wgt>
<wgt id='1397'> +4.0989207E-01 </wgt>
<wgt id='1398'> +4.0748494E-01 </wgt>
<wgt id='1399'> +4.0775821E-01 </wgt>
<wgt id='1400'> +4.0982413E-01 </wgt>
<wgt id='1401'> +4.0876018E-01 </wgt>
<wgt id='1402'> +4.0856377E-01 </wgt>
<wgt id='1403'> +4.0779037E-01 </wgt>
<wgt id='1404'> +4.1046320E-01 </wgt>
<wgt id='1405'> +4.1021005E-01 </wgt>
<wgt id='1406'> +4.0653950E-01 </wgt>
<wgt id='1407'> +4.1001472E-01 </wgt>
<wgt id='1408'> +4.0775108E-01 </wgt>
<wgt id='1409'> +4.0931873E-01 </wgt>
<wgt id='1410'> +4.0795020E-01 </wgt>
<wgt id='1411'> +4.0684289E-01 </wgt>
<wgt id='1412'> +4.1008680E-01 </wgt>
<wgt id='1413'> +4.1165838E-01 </wgt>
<wgt id='1414'> +4.0546999E-01 </wgt>
<wgt id='1415'> +4.1126191E-01 </wgt>
<wgt id='1416'> +4.0609902E-01 </wgt>
<wgt id='1417'> +4.0622341E-01 </wgt>
<wgt id='1418'> +4.1170026E-01 </wgt>
<wgt id='1419'> +4.0641855E-01 </wgt>
<wgt id='1420'> +4.0736163E-01 </wgt>
<wgt id='1421'> +4.0893979E-01 </wgt>
<wgt id='1422'> +4.0830430E-01 </wgt>
<wgt id='1423'> +4.1027451E-01 </wgt>
<wgt id='1424'> +4.0737823E-01 </wgt>
<wgt id='1425'> +4.0845301E-01 </wgt>
<wgt id='1426'> +4.0879761E-01 </wgt>
<wgt id='1427'> +4.0936084E-01 </wgt>
<wgt id='1428'> +4.0659158E-01 </wgt>
<wgt id='1429'> +4.0864464E-01 </wgt>
<wgt id='1430'> +4.0804168E-01 </wgt>
<wgt id='1431'> +4.0686645E-01 </wgt>
<wgt id='1432'> +4.1026006E-01 </wgt>
<wgt id='1433'> +4.0232391E-01 </wgt>
<wgt id='1434'> +4.1605926E-01 </wgt>
<wgt id='1435'> +4.0752099E-01 </wgt>
<wgt id='1436'> +4.0820702E-01 </wgt>
<wgt id='1437'> +4.0709089E-01 </wgt>
<wgt id='1438'> +4.1287261E-01 </wgt>
<wgt id='1439'> +4.1106087E-01 </wgt>
<wgt id='1440'> +4.0489942E-01 </wgt>
<wgt id='1441'> +4.0943808E-01 </wgt>
<wgt id='1442'> +4.0692712E-01 </wgt>
<wgt id='1443'> +4.0669890E-01 </wgt>
<wgt id='1444'> +4.0664321E-01 </wgt>
<wgt id='1445'> +4.0677197E-01 </wgt>
<wgt id='1446'> +4.0724111E-01 </wgt>
<wgt id='1447'> +4.0633368E-01 </wgt>
<wgt id='1448'> +4.0794374E-01 </wgt>
<wgt id='1449'> +4.0553916E-01 </wgt>
<wgt id='1450'> +4.0569116E-01 </wgt>
<wgt id='1451'> +4.0785400E-01 </wgt>
<wgt id='1452'> +4.0689438E-01 </wgt>
<wgt id='1453'> +4.0652750E-01 </wgt>
<wgt id='1454'> +4.0596453E-01 </wgt>
<wgt id='1455'> +4.0830310E-01 </wgt>
<wgt id='1456'> +4.0866119E-01 </wgt>
<wgt id='1457'> +4.0322013E-01 </wgt>
<wgt id='1458'> +4.0778626E-01 </wgt>
<wgt id='1459'> +4.0608539E-01 </wgt>
<wgt id='1460'> +4.0695103E-01 </wgt>
<wgt id='1461'> +4.0641840E-01 </wgt>
<wgt id='1462'> +4.0487280E-01 </wgt>
<wgt id='1463'> +4.0829311E-01 </wgt>
<wgt id='1464'> +4.0929712E-01 </wgt>
<wgt id='1465'> +4.0326388E-01 </wgt>
<wgt id='1466'> +4.1030739E-01 </wgt>
<wgt id='1467'> +4.0434771E-01 </wgt>
<wgt id='1468'> +4.0874568E-01 </wgt>
<wgt id='1469'> +4.0473580E-01 </wgt>
<wgt id='1470'> +4.0461761E-01 </wgt>
<wgt id='1471'> +4.0574723E-01 </wgt>
<wgt id='1472'> +4.0672622E-01 </wgt>
<wgt id='1473'> +4.0655485E-01 </wgt>
<wgt id='1474'> +4.0789073E-01 </wgt>
<wgt id='1475'> +4.0517630E-01 </wgt>
<wgt id='1476'> +4.0612095E-01 </wgt>
<wgt id='1477'> +4.0714663E-01 </wgt>
<wgt id='1478'> +4.0745675E-01 </wgt>
<wgt id='1479'> +4.0444490E-01 </wgt>
<wgt id='1480'> +4.0717037E-01 </wgt>
<wgt id='1481'> +4.0619132E-01 </wgt>
<wgt id='1482'> +4.0490559E-01 </wgt>
<wgt id='1483'> +4.0852133E-01 </wgt>
<wgt id='1484'> +4.0027885E-01 </wgt>
<wgt id='1485'> +4.1382463E-01 </wgt>
<wgt id='1486'> +4.0702667E-01 </wgt>
<wgt id='1487'> +4.0571085E-01 </wgt>
<wgt id='1488'> +4.0485416E-01 </wgt>
<wgt id='1489'> +4.1137911E-01 </wgt>
<wgt id='1490'> +4.0887077E-01 </wgt>
<wgt id='1491'> +4.0301058E-01 </wgt>
<wgt id='1492'> +4.0771129E-01 </wgt>
<wgt id='1493'> +4.0447446E-01 </wgt>
<wgt id='1494'> +3.9001383E-01 </wgt>
<wgt id='1495'> +3.8718966E-01 </wgt>
<wgt id='1496'> +3.8848191E-01 </wgt>
<wgt id='1497'> +3.8923288E-01 </wgt>
<wgt id='1498'> +3.9108397E-01 </wgt>
<wgt id='1499'> +3.9009258E-01 </wgt>
<wgt id='1500'> +3.9018083E-01 </wgt>
<wgt id='1501'> +3.9036052E-01 </wgt>
<wgt id='1502'> +3.9046968E-01 </wgt>
<wgt id='1503'> +3.9039454E-01 </wgt>
<wgt id='1504'> +3.9029572E-01 </wgt>
<wgt id='1505'> +3.9000142E-01 </wgt>
<wgt id='1506'> +3.8976860E-01 </wgt>
<wgt id='1507'> +3.8954265E-01 </wgt>
<wgt id='1508'> +3.9009258E-01 </wgt>
<wgt id='1509'> +3.9062302E-01 </wgt>
<wgt id='1510'> +3.9034052E-01 </wgt>
<wgt id='1511'> +3.8988390E-01 </wgt>
<wgt id='1512'> +3.8973045E-01 </wgt>
<wgt id='1513'> +3.9591301E-01 </wgt>
<wgt id='1514'> +3.9569199E-01 </wgt>
<wgt id='1515'> +3.9622756E-01 </wgt>
<wgt id='1516'> +3.9636686E-01 </wgt>
<wgt id='1517'> +3.9548806E-01 </wgt>
<wgt id='1518'> +3.9703002E-01 </wgt>
<wgt id='1519'> +3.9547157E-01 </wgt>
<wgt id='1520'> +3.9571354E-01 </wgt>
<wgt id='1521'> +3.9613229E-01 </wgt>
<wgt id='1522'> +3.9652401E-01 </wgt>
<wgt id='1523'> +3.9532499E-01 </wgt>
<wgt id='1524'> +3.9756367E-01 </wgt>
<wgt id='1525'> +3.9521146E-01 </wgt>
<wgt id='1526'> +3.9641480E-01 </wgt>
<wgt id='1527'> +3.9531619E-01 </wgt>
<wgt id='1528'> +3.9841014E-01 </wgt>
<wgt id='1529'> +3.9322663E-01 </wgt>
<wgt id='1530'> +3.9678995E-01 </wgt>
<wgt id='1531'> +3.9543304E-01 </wgt>
<wgt id='1532'> +3.9615760E-01 </wgt>
<wgt id='1533'> +3.9559229E-01 </wgt>
<wgt id='1534'> +3.9167444E-01 </wgt>
<wgt id='1535'> +3.9885452E-01 </wgt>
<wgt id='1536'> +3.9320514E-01 </wgt>
<wgt id='1537'> +3.9848330E-01 </wgt>
<wgt id='1538'> +3.9478648E-01 </wgt>
<wgt id='1539'> +3.9876575E-01 </wgt>
<wgt id='1540'> +3.9460264E-01 </wgt>
<wgt id='1541'> +3.9405857E-01 </wgt>
<wgt id='1542'> +3.9563945E-01 </wgt>
<wgt id='1543'> +3.9691690E-01 </wgt>
<wgt id='1544'> +3.9662971E-01 </wgt>
<wgt id='1545'> +3.9389309E-01 </wgt>
<wgt id='1546'> +3.9635428E-01 </wgt>
<wgt id='1547'> +3.9449433E-01 </wgt>
<wgt id='1548'> +3.9394391E-01 </wgt>
<wgt id='1549'> +3.9627255E-01 </wgt>
<wgt id='1550'> +3.9534471E-01 </wgt>
<wgt id='1551'> +3.9328194E-01 </wgt>
<wgt id='1552'> +3.9376147E-01 </wgt>
<wgt id='1553'> +3.9729421E-01 </wgt>
<wgt id='1554'> +3.9985247E-01 </wgt>
<wgt id='1555'> +3.8887588E-01 </wgt>
<wgt id='1556'> +3.9554951E-01 </wgt>
<wgt id='1557'> +3.9432486E-01 </wgt>
<wgt id='1558'> +3.9217311E-01 </wgt>
<wgt id='1559'> +3.9903853E-01 </wgt>
<wgt id='1560'> +3.9988614E-01 </wgt>
<wgt id='1561'> +3.9417926E-01 </wgt>
<wgt id='1562'> +3.9418328E-01 </wgt>
<wgt id='1563'> +3.9705163E-01 </wgt>
<wgt id='1564'> +3.9591301E-01 </wgt>
<wgt id='1565'> +3.9474579E-01 </wgt>
<wgt id='1566'> +3.9670240E-01 </wgt>
<wgt id='1567'> +3.9548415E-01 </wgt>
<wgt id='1568'> +3.9605948E-01 </wgt>
<wgt id='1569'> +3.9620720E-01 </wgt>
<wgt id='1570'> +3.9604582E-01 </wgt>
<wgt id='1571'> +3.9575792E-01 </wgt>
<wgt id='1572'> +3.9577176E-01 </wgt>
<wgt id='1573'> +3.9505515E-01 </wgt>
<wgt id='1574'> +3.9438305E-01 </wgt>
<wgt id='1575'> +3.9398087E-01 </wgt>
<wgt id='1576'> +3.9548415E-01 </wgt>
<wgt id='1577'> +3.9589073E-01 </wgt>
<wgt id='1578'> +3.9566863E-01 </wgt>
<wgt id='1579'> +3.9535097E-01 </wgt>
<wgt id='1580'> +3.9523287E-01 </wgt>
<wgt id='1581'> +3.9068133E-01 </wgt>
<wgt id='1582'> +3.9102159E-01 </wgt>
<wgt id='1583'> +3.9619243E-01 </wgt>
<wgt id='1584'> +3.8869731E-01 </wgt>
<wgt id='1585'> +3.9187176E-01 </wgt>
<wgt id='1586'> +3.8681197E-01 </wgt>
<wgt id='1587'> +3.8863880E-01 </wgt>
<wgt id='1588'> +3.9201636E-01 </wgt>
<wgt id='1589'> +3.9021420E-01 </wgt>
<wgt id='1590'> +3.8940498E-01 </wgt>
<wgt id='1591'> +3.8972625E-01 </wgt>
<wgt id='1592'> +3.8795327E-01 </wgt>
<wgt id='1593'> +3.9096017E-01 </wgt>
<wgt id='1594'> +3.9036815E-01 </wgt>
<wgt id='1595'> +3.9043572E-01 </wgt>
<wgt id='1596'> +3.9207257E-01 </wgt>
<wgt id='1597'> +3.8990720E-01 </wgt>
<wgt id='1598'> +3.9281100E-01 </wgt>
<wgt id='1599'> +3.9590477E-01 </wgt>
<wgt id='1600'> +3.9167794E-01 </wgt>
<wgt id='1601'> +3.9001872E-01 </wgt>
<wgt id='1602'> +3.9156957E-01 </wgt>
<wgt id='1603'> +3.9057736E-01 </wgt>
<wgt id='1604'> +3.9134248E-01 </wgt>
<wgt id='1605'> +3.9022344E-01 </wgt>
<wgt id='1606'> +3.9074435E-01 </wgt>
<wgt id='1607'> +3.9149699E-01 </wgt>
<wgt id='1608'> +3.9314313E-01 </wgt>
<wgt id='1609'> +3.9090600E-01 </wgt>
<wgt id='1610'> +3.9004024E-01 </wgt>
<wgt id='1611'> +3.9301731E-01 </wgt>
<wgt id='1612'> +3.8942566E-01 </wgt>
<wgt id='1613'> +3.8893625E-01 </wgt>
<wgt id='1614'> +3.8937932E-01 </wgt>
<wgt id='1615'> +3.8974044E-01 </wgt>
<wgt id='1616'> +3.8957466E-01 </wgt>
<wgt id='1617'> +3.8915471E-01 </wgt>
<wgt id='1618'> +3.8976615E-01 </wgt>
<wgt id='1619'> +3.8884757E-01 </wgt>
<wgt id='1620'> +3.8893369E-01 </wgt>
<wgt id='1621'> +3.8904410E-01 </wgt>
<wgt id='1622'> +3.8974792E-01 </wgt>
<wgt id='1623'> +3.8761307E-01 </wgt>
<wgt id='1624'> +3.8797634E-01 </wgt>
<wgt id='1625'> +3.8789304E-01 </wgt>
<wgt id='1626'> +3.8873887E-01 </wgt>
<wgt id='1627'> +3.8970560E-01 </wgt>
<wgt id='1628'> +3.9002108E-01 </wgt>
<wgt id='1629'> +3.8919237E-01 </wgt>
<wgt id='1630'> +3.8895320E-01 </wgt>
<wgt id='1631'> +3.8865733E-01 </wgt>
<wgt id='1632'> +3.8850544E-01 </wgt>
<wgt id='1633'> +3.8932029E-01 </wgt>
<wgt id='1634'> +3.8966754E-01 </wgt>
<wgt id='1635'> +3.8833506E-01 </wgt>
<wgt id='1636'> +3.9096244E-01 </wgt>
<wgt id='1637'> +3.8966401E-01 </wgt>
<wgt id='1638'> +3.8996635E-01 </wgt>
<wgt id='1639'> +3.9120097E-01 </wgt>
<wgt id='1640'> +3.9021385E-01 </wgt>
<wgt id='1641'> +3.8499344E-01 </wgt>
<wgt id='1642'> +3.8712107E-01 </wgt>
<wgt id='1643'> +3.8886539E-01 </wgt>
<wgt id='1644'> +3.8766264E-01 </wgt>
<wgt id='1645'> +3.8910439E-01 </wgt>
<wgt id='1646'> +3.9026712E-01 </wgt>
<wgt id='1647'> +3.8961249E-01 </wgt>
<wgt id='1648'> +3.8955584E-01 </wgt>
<wgt id='1649'> +3.9091861E-01 </wgt>
<wgt id='1650'> +3.8922552E-01 </wgt>
<wgt id='1651'> +3.8909553E-01 </wgt>
<wgt id='1652'> +3.8937481E-01 </wgt>
<wgt id='1653'> +3.8928539E-01 </wgt>
<wgt id='1654'> +3.8893707E-01 </wgt>
<wgt id='1655'> +3.8937894E-01 </wgt>
<wgt id='1656'> +3.9074502E-01 </wgt>
<wgt id='1657'> +3.8829412E-01 </wgt>
<wgt id='1658'> +3.8962199E-01 </wgt>
<wgt id='1659'> +3.9046208E-01 </wgt>
<wgt id='1660'> +3.8801918E-01 </wgt>
<wgt id='1661'> +3.9050527E-01 </wgt>
<wgt id='1662'> +3.9111409E-01 </wgt>
<wgt id='1663'> +3.9162353E-01 </wgt>
<wgt id='1664'> +3.8893389E-01 </wgt>
<wgt id='1665'> +3.8958881E-01 </wgt>
<wgt id='1666'> +3.9020549E-01 </wgt>
<wgt id='1667'> +3.8905391E-01 </wgt>
<wgt id='1668'> +3.8910086E-01 </wgt>
<wgt id='1669'> +3.8893220E-01 </wgt>
<wgt id='1670'> +3.8946250E-01 </wgt>
<wgt id='1671'> +3.8889198E-01 </wgt>
<wgt id='1672'> +3.8879884E-01 </wgt>
<wgt id='1673'> +3.8931740E-01 </wgt>
<wgt id='1674'> +3.8838542E-01 </wgt>
<wgt id='1675'> +3.8965941E-01 </wgt>
<wgt id='1676'> +3.8994920E-01 </wgt>
<wgt id='1677'> +3.8919922E-01 </wgt>
<wgt id='1678'> +3.9001697E-01 </wgt>
<wgt id='1679'> +3.8930872E-01 </wgt>
<wgt id='1680'> +3.8936502E-01 </wgt>
<wgt id='1681'> +3.8951731E-01 </wgt>
<wgt id='1682'> +3.8908921E-01 </wgt>
<wgt id='1683'> +3.8871124E-01 </wgt>
<wgt id='1684'> +3.8956196E-01 </wgt>
<wgt id='1685'> +3.8976129E-01 </wgt>
<wgt id='1686'> +3.8967756E-01 </wgt>
<wgt id='1687'> +3.8961220E-01 </wgt>
<wgt id='1688'> +3.8962312E-01 </wgt>
<wgt id='1689'> +3.8935891E-01 </wgt>
<wgt id='1690'> +3.8946649E-01 </wgt>
<wgt id='1691'> +3.9068051E-01 </wgt>
<wgt id='1692'> +3.8901987E-01 </wgt>
<wgt id='1693'> +3.8918521E-01 </wgt>
<wgt id='1694'> +3.8898754E-01 </wgt>
<wgt id='1695'> +3.8948638E-01 </wgt>
<wgt id='1696'> +3.8896986E-01 </wgt>
<wgt id='1697'> +3.8963314E-01 </wgt>
<wgt id='1698'> +3.8952882E-01 </wgt>
<wgt id='1699'> +3.8926113E-01 </wgt>
<wgt id='1700'> +3.8972057E-01 </wgt>
<wgt id='1701'> +3.8926344E-01 </wgt>
<wgt id='1702'> +3.8911475E-01 </wgt>
<wgt id='1703'> +3.8995919E-01 </wgt>
<wgt id='1704'> +3.9001537E-01 </wgt>
<wgt id='1705'> +3.8926544E-01 </wgt>
<wgt id='1706'> +3.8954950E-01 </wgt>
<wgt id='1707'> +3.8932451E-01 </wgt>
<wgt id='1708'> +3.8938535E-01 </wgt>
<wgt id='1709'> +3.8974402E-01 </wgt>
<wgt id='1710'> +3.8913456E-01 </wgt>
<wgt id='1711'> +3.8931053E-01 </wgt>
<wgt id='1712'> +3.8987886E-01 </wgt>
<wgt id='1713'> +3.8388916E-01 </wgt>
<wgt id='1714'> +3.9429582E-01 </wgt>
<wgt id='1715'> +3.8690634E-01 </wgt>
<wgt id='1716'> +3.8697667E-01 </wgt>
<wgt id='1717'> +3.9931486E-01 </wgt>
<wgt id='1718'> +3.8270569E-01 </wgt>
<wgt id='1719'> +3.7957513E-01 </wgt>
<wgt id='1720'> +3.9911259E-01 </wgt>
<wgt id='1721'> +3.7843153E-01 </wgt>
<wgt id='1722'> +3.9309665E-01 </wgt>
<wgt id='1723'> +3.9483561E-01 </wgt>
<wgt id='1724'> +3.9438185E-01 </wgt>
<wgt id='1725'> +3.8705740E-01 </wgt>
<wgt id='1726'> +3.8607620E-01 </wgt>
<wgt id='1727'> +3.9108325E-01 </wgt>
<wgt id='1728'> +3.9091103E-01 </wgt>
<wgt id='1729'> +3.8779274E-01 </wgt>
<wgt id='1730'> +3.7604737E-01 </wgt>
<wgt id='1731'> +3.5759433E-01 </wgt>
<wgt id='1732'> +3.7870917E-01 </wgt>
<wgt id='1733'> +3.9006351E-01 </wgt>
<wgt id='1734'> +4.0565782E-01 </wgt>
<wgt id='1735'> +3.6984655E-01 </wgt>
<wgt id='1736'> +4.0079494E-01 </wgt>
<wgt id='1737'> +3.8141084E-01 </wgt>
<wgt id='1738'> +3.9142770E-01 </wgt>
<wgt id='1739'> +3.9510594E-01 </wgt>
<wgt id='1740'> +3.8975602E-01 </wgt>
<wgt id='1741'> +3.7834905E-01 </wgt>
<wgt id='1742'> +3.9505471E-01 </wgt>
<wgt id='1743'> +3.7054096E-01 </wgt>
<wgt id='1744'> +3.9294727E-01 </wgt>
<wgt id='1745'> +3.7504028E-01 </wgt>
<wgt id='1746'> +3.7917237E-01 </wgt>
<wgt id='1747'> +3.9588068E-01 </wgt>
<wgt id='1748'> +3.8205476E-01 </wgt>
<wgt id='1749'> +3.9607087E-01 </wgt>
<wgt id='1750'> +3.7830324E-01 </wgt>
<wgt id='1751'> +3.8821705E-01 </wgt>
<wgt id='1752'> +3.8336428E-01 </wgt>
<wgt id='1753'> +4.0002072E-01 </wgt>
<wgt id='1754'> +3.9822916E-01 </wgt>
<wgt id='1755'> +3.9001126E-01 </wgt>
<wgt id='1756'> +3.9548360E-01 </wgt>
<wgt id='1757'> +3.9691023E-01 </wgt>
<wgt id='1758'> +3.9125141E-01 </wgt>
<wgt id='1759'> +3.8473756E-01 </wgt>
<wgt id='1760'> +3.9094587E-01 </wgt>
<wgt id='1761'> +3.8520285E-01 </wgt>
<wgt id='1762'> +3.9108325E-01 </wgt>
<wgt id='1763'> +3.8463999E-01 </wgt>
<wgt id='1764'> +3.9973225E-01 </wgt>
<wgt id='1765'> +3.8745996E-01 </wgt>
<wgt id='1766'> +3.9267697E-01 </wgt>
<wgt id='1767'> +3.9135390E-01 </wgt>
<wgt id='1768'> +3.6060458E-01 </wgt>
<wgt id='1769'> +3.8911365E-01 </wgt>
<wgt id='1770'> +3.9719944E-01 </wgt>
<wgt id='1771'> +3.9164579E-01 </wgt>
<wgt id='1772'> +3.9644089E-01 </wgt>
<wgt id='1773'> +3.8935439E-01 </wgt>
<wgt id='1774'> +3.6804637E-01 </wgt>
<wgt id='1775'> +3.8094887E-01 </wgt>
<wgt id='1776'> +4.0065896E-01 </wgt>
<wgt id='1777'> +3.9239626E-01 </wgt>
<wgt id='1778'> +3.7961850E-01 </wgt>
<wgt id='1779'> +3.8402928E-01 </wgt>
<wgt id='1780'> +3.8170512E-01 </wgt>
<wgt id='1781'> +3.9073171E-01 </wgt>
<wgt id='1782'> +3.9656811E-01 </wgt>
<wgt id='1783'> +3.8596751E-01 </wgt>
<wgt id='1784'> +3.8064974E-01 </wgt>
<wgt id='1785'> +3.8744983E-01 </wgt>
<wgt id='1786'> +3.9330600E-01 </wgt>
<wgt id='1787'> +3.8168383E-01 </wgt>
<wgt id='1788'> +3.9282815E-01 </wgt>
<wgt id='1789'> +3.8497766E-01 </wgt>
<wgt id='1790'> +3.8043320E-01 </wgt>
<wgt id='1791'> +3.6209697E-01 </wgt>
<wgt id='1792'> +3.7904865E-01 </wgt>
<wgt id='1793'> +3.8941153E-01 </wgt>
<wgt id='1794'> +3.7696366E-01 </wgt>
<wgt id='1795'> +3.7192536E-01 </wgt>
<wgt id='1796'> +3.8511734E-01 </wgt>
<wgt id='1797'> +3.8758348E-01 </wgt>
<wgt id='1798'> +3.8082541E-01 </wgt>
<wgt id='1799'> +3.9198800E-01 </wgt>
<wgt id='1800'> +3.9588534E-01 </wgt>
<wgt id='1801'> +3.7638504E-01 </wgt>
<wgt id='1802'> +3.9181698E-01 </wgt>
<wgt id='1803'> +3.8774701E-01 </wgt>
<wgt id='1804'> +3.9447356E-01 </wgt>
<wgt id='1805'> +3.9623941E-01 </wgt>
<wgt id='1806'> +3.8088864E-01 </wgt>
<wgt id='1807'> +3.8549520E-01 </wgt>
<wgt id='1808'> +3.7639212E-01 </wgt>
<wgt id='1809'> +3.8943533E-01 </wgt>
<wgt id='1810'> +3.8004634E-01 </wgt>
<wgt id='1811'> +3.9169151E-01 </wgt>
<wgt id='1812'> +3.8300095E-01 </wgt>
<wgt id='1813'> +3.9511555E-01 </wgt>
<wgt id='1814'> +3.7684987E-01 </wgt>
<wgt id='1815'> +3.9360009E-01 </wgt>
<wgt id='1816'> +3.9872920E-01 </wgt>
<wgt id='1817'> +4.0674195E-01 </wgt>
<wgt id='1818'> +4.0552419E-01 </wgt>
<wgt id='1819'> +4.0274060E-01 </wgt>
<wgt id='1820'> +4.0510929E-01 </wgt>
<wgt id='1821'> +4.0413103E-01 </wgt>
<wgt id='1822'> +3.9851732E-01 </wgt>
<wgt id='1823'> +4.0044865E-01 </wgt>
<wgt id='1824'> +4.1428165E-01 </wgt>
<wgt id='1825'> +3.9874900E-01 </wgt>
<wgt id='1826'> +4.0996873E-01 </wgt>
<wgt id='1827'> +3.9146548E-01 </wgt>
<wgt id='1828'> +3.9668993E-01 </wgt>
<wgt id='1829'> +3.7904868E-01 </wgt>
<wgt id='1830'> +3.9235462E-01 </wgt>
<wgt id='1831'> +4.0441892E-01 </wgt>
<wgt id='1832'> +4.0876417E-01 </wgt>
<wgt id='1833'> +3.8900563E-01 </wgt>
<wgt id='1834'> +3.7404376E-01 </wgt>
<wgt id='1835'> +4.0166360E-01 </wgt>
<wgt id='1836'> +4.2498296E-01 </wgt>
<wgt id='1837'> +4.0602688E-01 </wgt>
<wgt id='1838'> +4.0927417E-01 </wgt>
<wgt id='1839'> +4.1168891E-01 </wgt>
<wgt id='1840'> +3.9068249E-01 </wgt>
<wgt id='1841'> +3.8937286E-01 </wgt>
<wgt id='1842'> +3.9093524E-01 </wgt>
<wgt id='1843'> +3.8820089E-01 </wgt>
<wgt id='1844'> +3.8730144E-01 </wgt>
<wgt id='1845'> +4.0473751E-01 </wgt>
<wgt id='1846'> +4.0667088E-01 </wgt>
<wgt id='1847'> +4.0058437E-01 </wgt>
<wgt id='1848'> +4.0009805E-01 </wgt>
<wgt id='1849'> +4.0425571E-01 </wgt>
<wgt id='1850'> +3.9793524E-01 </wgt>
<wgt id='1851'> +4.0288418E-01 </wgt>
<wgt id='1852'> +3.9589096E-01 </wgt>
<wgt id='1853'> +3.9214830E-01 </wgt>
<wgt id='1854'> +3.9956181E-01 </wgt>
<wgt id='1855'> +4.0212686E-01 </wgt>
<wgt id='1856'> +3.9850439E-01 </wgt>
<wgt id='1857'> +4.0583827E-01 </wgt>
<wgt id='1858'> +4.0041332E-01 </wgt>
<wgt id='1859'> +3.9675657E-01 </wgt>
<wgt id='1860'> +4.0177669E-01 </wgt>
<wgt id='1861'> +4.0155724E-01 </wgt>
<wgt id='1862'> +3.9303627E-01 </wgt>
<wgt id='1863'> +4.0621019E-01 </wgt>
<wgt id='1864'> +3.9763753E-01 </wgt>
<wgt id='1865'> +4.0217197E-01 </wgt>
<wgt id='1866'> +3.9688763E-01 </wgt>
<wgt id='1867'> +3.9984941E-01 </wgt>
<wgt id='1868'> +3.9614845E-01 </wgt>
<wgt id='1869'> +3.9965317E-01 </wgt>
<wgt id='1870'> +3.9618993E-01 </wgt>
<wgt id='1871'> +3.8853361E-01 </wgt>
<wgt id='1872'> +3.8216761E-01 </wgt>
<wgt id='1873'> +3.8496851E-01 </wgt>
<wgt id='1874'> +3.9078857E-01 </wgt>
<wgt id='1875'> +4.0440593E-01 </wgt>
<wgt id='1876'> +4.0708189E-01 </wgt>
<wgt id='1877'> +3.7666272E-01 </wgt>
<wgt id='1878'> +4.0033064E-01 </wgt>
<wgt id='1879'> +3.8023902E-01 </wgt>
<wgt id='1880'> +3.6974228E-01 </wgt>
<wgt id='1881'> +3.9551602E-01 </wgt>
<wgt id='1882'> +3.8587009E-01 </wgt>
<wgt id='1883'> +4.5181831E-01 </wgt>
<wgt id='1884'> +3.8593967E-01 </wgt>
<wgt id='1885'> +3.9920509E-01 </wgt>
<wgt id='1886'> +3.9094598E-01 </wgt>
<wgt id='1887'> +3.9644608E-01 </wgt>
<wgt id='1888'> +4.0439484E-01 </wgt>
<wgt id='1889'> +4.0995009E-01 </wgt>
<wgt id='1890'> +4.0405323E-01 </wgt>
<wgt id='1891'> +3.9757922E-01 </wgt>
<wgt id='1892'> +4.1396798E-01 </wgt>
<wgt id='1893'> +3.9149111E-01 </wgt>
<wgt id='1894'> +4.0860017E-01 </wgt>
<wgt id='1895'> +3.9869576E-01 </wgt>
<wgt id='1896'> +3.9846227E-01 </wgt>
<wgt id='1897'> +4.0291354E-01 </wgt>
<wgt id='1898'> +4.0404342E-01 </wgt>
<wgt id='1899'> +4.1363168E-01 </wgt>
<wgt id='1900'> +3.9852291E-01 </wgt>
<wgt id='1901'> +3.9365665E-01 </wgt>
<wgt id='1902'> +3.9881573E-01 </wgt>
<wgt id='1903'> +3.9994992E-01 </wgt>
<wgt id='1904'> +3.9316556E-01 </wgt>
<wgt id='1905'> +3.9213918E-01 </wgt>
<wgt id='1906'> +3.9717893E-01 </wgt>
<wgt id='1907'> +4.1020091E-01 </wgt>
<wgt id='1908'> +4.0834827E-01 </wgt>
<wgt id='1909'> +3.9557517E-01 </wgt>
<wgt id='1910'> +4.1347100E-01 </wgt>
<wgt id='1911'> +3.8380438E-01 </wgt>
<wgt id='1912'> +4.0393080E-01 </wgt>
<wgt id='1913'> +3.8703180E-01 </wgt>
<wgt id='1914'> +3.9205064E-01 </wgt>
<wgt id='1915'> +3.9409524E-01 </wgt>
<wgt id='1916'> +3.8904716E-01 </wgt>
<wgt id='1917'> +3.8861032E-01 </wgt>
<wgt id='1918'> +4.0246190E-01 </wgt>
<wgt id='1919'> +3.9872920E-01 </wgt>
<wgt id='1920'> +4.0674195E-01 </wgt>
<wgt id='1921'> +4.0552419E-01 </wgt>
<wgt id='1922'> +4.0274060E-01 </wgt>
<wgt id='1923'> +4.0510929E-01 </wgt>
<wgt id='1924'> +4.0413103E-01 </wgt>
<wgt id='1925'> +3.9851732E-01 </wgt>
<wgt id='1926'> +4.0044865E-01 </wgt>
<wgt id='1927'> +4.1428165E-01 </wgt>
<wgt id='1928'> +3.9874900E-01 </wgt>
<wgt id='1929'> +4.0996873E-01 </wgt>
<wgt id='1930'> +3.9146548E-01 </wgt>
<wgt id='1931'> +3.9668993E-01 </wgt>
<wgt id='1932'> +3.7904868E-01 </wgt>
<wgt id='1933'> +3.9235462E-01 </wgt>
<wgt id='1934'> +4.0441892E-01 </wgt>
<wgt id='1935'> +4.0876417E-01 </wgt>
<wgt id='1936'> +3.8900563E-01 </wgt>
<wgt id='1937'> +3.7404376E-01 </wgt>
<wgt id='1938'> +4.0166360E-01 </wgt>
<wgt id='1939'> +4.2498296E-01 </wgt>
<wgt id='1940'> +4.0602688E-01 </wgt>
<wgt id='1941'> +4.0927417E-01 </wgt>
<wgt id='1942'> +4.1168891E-01 </wgt>
<wgt id='1943'> +3.9068249E-01 </wgt>
<wgt id='1944'> +3.8937286E-01 </wgt>
<wgt id='1945'> +3.9093524E-01 </wgt>
<wgt id='1946'> +3.8820089E-01 </wgt>
<wgt id='1947'> +3.8730144E-01 </wgt>
<wgt id='1948'> +4.0473751E-01 </wgt>
<wgt id='1949'> +4.0667088E-01 </wgt>
<wgt id='1950'> +4.0058437E-01 </wgt>
<wgt id='1951'> +4.0009805E-01 </wgt>
<wgt id='1952'> +4.0425571E-01 </wgt>
<wgt id='1953'> +3.9793524E-01 </wgt>
<wgt id='1954'> +4.0288418E-01 </wgt>
<wgt id='1955'> +3.9589096E-01 </wgt>
<wgt id='1956'> +3.9214830E-01 </wgt>
<wgt id='1957'> +3.9956181E-01 </wgt>
<wgt id='1958'> +4.0212686E-01 </wgt>
<wgt id='1959'> +3.9850439E-01 </wgt>
<wgt id='1960'> +4.0583827E-01 </wgt>
<wgt id='1961'> +4.0041332E-01 </wgt>
<wgt id='1962'> +3.9675657E-01 </wgt>
<wgt id='1963'> +4.0177669E-01 </wgt>
<wgt id='1964'> +4.0155724E-01 </wgt>
<wgt id='1965'> +3.9303627E-01 </wgt>
<wgt id='1966'> +4.0621019E-01 </wgt>
<wgt id='1967'> +3.9763753E-01 </wgt>
<wgt id='1968'> +4.0217197E-01 </wgt>
<wgt id='1969'> +3.9688763E-01 </wgt>
<wgt id='1970'> +3.9984941E-01 </wgt>
<wgt id='1971'> +3.9614845E-01 </wgt>
<wgt id='1972'> +3.9965317E-01 </wgt>
<wgt id='1973'> +3.9618993E-01 </wgt>
<wgt id='1974'> +3.8853361E-01 </wgt>
<wgt id='1975'> +3.8216761E-01 </wgt>
<wgt id='1976'> +3.8496851E-01 </wgt>
<wgt id='1977'> +3.9078857E-01 </wgt>
<wgt id='1978'> +4.0440593E-01 </wgt>
<wgt id='1979'> +4.0708189E-01 </wgt>
<wgt id='1980'> +3.7666272E-01 </wgt>
<wgt id='1981'> +4.0033064E-01 </wgt>
<wgt id='1982'> +3.8023902E-01 </wgt>
<wgt id='1983'> +3.6974228E-01 </wgt>
<wgt id='1984'> +3.9551602E-01 </wgt>
<wgt id='1985'> +3.8587009E-01 </wgt>
<wgt id='1986'> +4.5181831E-01 </wgt>
<wgt id='1987'> +3.8593967E-01 </wgt>
<wgt id='1988'> +3.9920509E-01 </wgt>
<wgt id='1989'> +3.9094598E-01 </wgt>
<wgt id='1990'> +3.9644608E-01 </wgt>
<wgt id='1991'> +4.0439484E-01 </wgt>
<wgt id='1992'> +4.0995009E-01 </wgt>
<wgt id='1993'> +4.0405323E-01 </wgt>
<wgt id='1994'> +3.9757922E-01 </wgt>
<wgt id='1995'> +4.1396798E-01 </wgt>
<wgt id='1996'> +3.9149111E-01 </wgt>
<wgt id='1997'> +4.0860017E-01 </wgt>
<wgt id='1998'> +3.9869576E-01 </wgt>
<wgt id='1999'> +3.9846227E-01 </wgt>
<wgt id='2000'> +4.0291354E-01 </wgt>
<wgt id='2001'> +4.0404342E-01 </wgt>
<wgt id='2002'> +4.1363168E-01 </wgt>
<wgt id='2003'> +3.9852291E-01 </wgt>
<wgt id='2004'> +3.9365665E-01 </wgt>
<wgt id='2005'> +3.9881573E-01 </wgt>
<wgt id='2006'> +3.9994992E-01 </wgt>
<wgt id='2007'> +3.9316556E-01 </wgt>
<wgt id='2008'> +3.9213918E-01 </wgt>
<wgt id='2009'> +3.9717893E-01 </wgt>
<wgt id='2010'> +4.1020091E-01 </wgt>
<wgt id='2011'> +4.0834827E-01 </wgt>
<wgt id='2012'> +3.9557517E-01 </wgt>
<wgt id='2013'> +4.1347100E-01 </wgt>
<wgt id='2014'> +3.8380438E-01 </wgt>
<wgt id='2015'> +4.0393080E-01 </wgt>
<wgt id='2016'> +3.8703180E-01 </wgt>
<wgt id='2017'> +3.9205064E-01 </wgt>
<wgt id='2018'> +3.9409524E-01 </wgt>
<wgt id='2019'> +3.8904716E-01 </wgt>
<wgt id='2020'> +3.9707094E-01 </wgt>
<wgt id='2021'> +3.9898727E-01 </wgt>
<wgt id='2022'> +3.9626224E-01 </wgt>
</rwgt>
</event>
<event>
13      1 +3.9556008E-01 6.84398800e+01 7.81860800e-03 1.22829700e-01
       21 -1    0    0  502  503 +0.0000000000e+00 +0.0000000000e+00 +1.9994464415e+02 1.9994464415e+02 0.0000000000e+00 0.0000e+00 1.0000e+00
        2 -1    0    0  501    0 +0.0000000000e+00 +0.0000000000e+00 -2.9103985169e+03 2.9103985169e+03 2.5500000000e-03 0.0000e+00 -1.0000e+00
  8000001  2    1    2  502    0 +3.7325561596e+01 -2.7590354571e+01 -1.0620463224e+03 1.2206948639e+03 5.9999927868e+02 0.0000e+00 0.0000e+00
        1  1    1    2  501    0 -3.7091635746e+01 +2.1363618017e+01 -1.7686430333e+03 1.7691609234e+03 5.0400000000e-03 0.0000e+00 -1.0000e+00
       -5  1    1    2    0  503 -2.3392584985e-01 +6.2267365544e+00 +1.2023548300e+02 1.2048737379e+02 4.6700000000e+00 0.0000e+00 1.0000e+00
        6  2    3    3  502    0 +2.1167471490e+02 +1.7062074637e+02 -5.3859902034e+02 6.2728425076e+02 1.7169450344e+02 0.0000e+00 0.0000e+00
        5  1    6    6  502    0 +1.0860452203e+02 +2.4487187934e+01 -1.0996882434e+02 1.5655515260e+02 4.6700000000e+00 0.0000e+00 -1.0000e+00
       24  2    6    6    0    0 +1.0307019288e+02 +1.4613355844e+02 -4.2863019601e+02 4.7072909816e+02 7.6704350374e+01 0.0000e+00 0.0000e+00
       16  1    8    8    0    0 +1.0724489738e+02 +1.0986030020e+02 -3.8037974005e+02 4.1019446634e+02 0.0000000000e+00 0.0000e+00 -1.0000e+00
      -15  1    8    8    0    0 -4.1747045052e+00 +3.6273258242e+01 -4.8250455953e+01 6.0534631821e+01 1.7770000000e+00 0.0000e+00 1.0000e+00
       23  2    3    3    0    0 -1.7434915331e+02 -1.9821110094e+02 -5.2344730210e+02 5.9341061310e+02 9.1944602137e+01 0.0000e+00 0.0000e+00
        3  1   11   11  504    0 -1.3876106533e+02 -1.7430444783e+02 -4.9245911177e+02 5.4051148068e+02 1.0100000000e-01 0.0000e+00 1.0000e+00
       -3  1   11   11    0  504 -3.5588087979e+01 -2.3906653120e+01 -3.0988190336e+01 5.2899132419e+01 1.0100000000e-01 0.0000e+00 -1.0000e+00
<mgrwt>
<rscale>  1 0.54131753e+02</rscale>
<asrwt>0</asrwt>
<pdfrwt beam="1">  1       21 0.30760714e-01 0.68439877e+02</pdfrwt>
<pdfrwt beam="2">  1        2 0.44775362e+00 0.42814903e+02</pdfrwt>
<totfact> 0.45127344e+02</totfact>
</mgrwt>
<rwgt>
<wgt id='1001'> +3.9556008E-01 </wgt>
<wgt id='1002'> +1.8293262E-01 </wgt>
<wgt id='1003'> +1.8280570E-01 </wgt>
<wgt id='1004'> +2.2102228E-01 </wgt>
<wgt id='1005'> +1.4548757E-01 </wgt>
<wgt id='1006'> +3.5321972E-01 </wgt>
<wgt id='1007'> +1.6889852E-01 </wgt>
<wgt id='1008'> +1.6878562E-01 </wgt>
<wgt id='1009'> +2.0259163E-01 </wgt>
<wgt id='1010'> +1.3538255E-01 </wgt>
<wgt id='1011'> +4.4992843E-01 </wgt>
<wgt id='1012'> +1.9958085E-01 </wgt>
<wgt id='1013'> +1.9943634E-01 </wgt>
<wgt id='1014'> +2.4325177E-01 </wgt>
<wgt id='1015'> +1.5726233E-01 </wgt>
<wgt id='1016'> +3.4960503E-01 </wgt>
<wgt id='1017'> +1.6600883E-01 </wgt>
<wgt id='1018'> +1.6589677E-01 </wgt>
<wgt id='1019'> +1.9943634E-01 </wgt>
<wgt id='1020'> +1.3286106E-01 </wgt>
<wgt id='1021'> +3.1218365E-01 </wgt>
<wgt id='1022'> +1.5327307E-01 </wgt>
<wgt id='1023'> +1.5317350E-01 </wgt>
<wgt id='1024'> +1.8280570E-01 </wgt>
<wgt id='1025'> +1.2363304E-01 </wgt>
<wgt id='1026'> +3.9765701E-01 </wgt>
<wgt id='1027'> +1.8111686E-01 </wgt>
<wgt id='1028'> +1.8098912E-01 </wgt>
<wgt id='1029'> +2.1949480E-01 </wgt>
<wgt id='1030'> +1.4361392E-01 </wgt>
<wgt id='1031'> +4.5135613E-01 </wgt>
<wgt id='1032'> +2.0273716E-01 </wgt>
<wgt id='1033'> +2.0259163E-01 </wgt>
<wgt id='1034'> +2.4631236E-01 </wgt>
<wgt id='1035'> +1.6009036E-01 </wgt>
<wgt id='1036'> +4.0304340E-01 </wgt>
<wgt id='1037'> +1.8718371E-01 </wgt>
<wgt id='1038'> +1.8705409E-01 </wgt>
<wgt id='1039'> +2.2577281E-01 </wgt>
<wgt id='1040'> +1.4897109E-01 </wgt>
<wgt id='1041'> +5.1339344E-01 </wgt>
<wgt id='1042'> +2.2118775E-01 </wgt>
<wgt id='1043'> +2.2102228E-01 </wgt>
<wgt id='1044'> +2.7108541E-01 </wgt>
<wgt id='1045'> +1.7304697E-01 </wgt>
<wgt id='1046'> +3.9556008E-01 </wgt>
<wgt id='1047'> +3.9556008E-01 </wgt>
<wgt id='1048'> +3.9556008E-01 </wgt>
<wgt id='1049'> +3.9702105E-01 </wgt>
<wgt id='1050'> +3.9488568E-01 </wgt>
<wgt id='1051'> +3.9725422E-01 </wgt>
<wgt id='1052'> +3.9612230E-01 </wgt>
<wgt id='1053'> +3.9720069E-01 </wgt>
<wgt id='1054'> +3.9535572E-01 </wgt>
<wgt id='1055'> +3.9608144E-01 </wgt>
<wgt id='1056'> +3.9700145E-01 </wgt>
<wgt id='1057'> +3.9592856E-01 </wgt>
<wgt id='1058'> +3.9603210E-01 </wgt>
<wgt id='1059'> +3.9232503E-01 </wgt>
<wgt id='1060'> +3.9530638E-01 </wgt>
<wgt id='1061'> +3.9663332E-01 </wgt>
<wgt id='1062'> +3.9530047E-01 </wgt>
<wgt id='1063'> +3.9611050E-01 </wgt>
<wgt id='1064'> +3.9519748E-01 </wgt>
<wgt id='1065'> +3.9479029E-01 </wgt>
<wgt id='1066'> +3.9441310E-01 </wgt>
<wgt id='1067'> +3.9676709E-01 </wgt>
<wgt id='1068'> +3.9298583E-01 </wgt>
<wgt id='1069'> +3.9661846E-01 </wgt>
<wgt id='1070'> +3.9551782E-01 </wgt>
<wgt id='1071'> +3.9492689E-01 </wgt>
<wgt id='1072'> +3.9735560E-01 </wgt>
<wgt id='1073'> +3.9684523E-01 </wgt>
<wgt id='1074'> +3.9597382E-01 </wgt>
<wgt id='1075'> +3.9372090E-01 </wgt>
<wgt id='1076'> +3.9679286E-01 </wgt>
<wgt id='1077'> +3.9833357E-01 </wgt>
<wgt id='1078'> +3.9628700E-01 </wgt>
<wgt id='1079'> +3.9733807E-01 </wgt>
<wgt id='1080'> +3.9618661E-01 </wgt>
<wgt id='1081'> +3.9461657E-01 </wgt>
<wgt id='1082'> +3.9697620E-01 </wgt>
<wgt id='1083'> +3.9532493E-01 </wgt>
<wgt id='1084'> +3.9362750E-01 </wgt>
<wgt id='1085'> +3.9688635E-01 </wgt>
<wgt id='1086'> +3.9337846E-01 </wgt>
<wgt id='1087'> +3.9356060E-01 </wgt>
<wgt id='1088'> +3.9615145E-01 </wgt>
<wgt id='1089'> +3.9466477E-01 </wgt>
<wgt id='1090'> +3.9409923E-01 </wgt>
<wgt id='1091'> +3.9507225E-01 </wgt>
<wgt id='1092'> +3.9607614E-01 </wgt>
<wgt id='1093'> +3.9589329E-01 </wgt>
<wgt id='1094'> +3.9625901E-01 </wgt>
<wgt id='1095'> +3.9465973E-01 </wgt>
<wgt id='1096'> +3.9623501E-01 </wgt>
<wgt id='1097'> +3.9643845E-01 </wgt>
<wgt id='1098'> +3.9434218E-01 </wgt>
<wgt id='1099'> +3.9633476E-01 </wgt>
<wgt id='1100'> +3.9587474E-01 </wgt>
<wgt id='1101'> +3.9448938E-01 </wgt>
<wgt id='1102'> +3.9741024E-01 </wgt>
<wgt id='1103'> +3.9656884E-01 </wgt>
<wgt id='1104'> +3.9545488E-01 </wgt>
<wgt id='1105'> +3.9402805E-01 </wgt>
<wgt id='1106'> +3.9662607E-01 </wgt>
<wgt id='1107'> +3.9456988E-01 </wgt>
<wgt id='1108'> +3.9495837E-01 </wgt>
<wgt id='1109'> +3.9693607E-01 </wgt>
<wgt id='1110'> +3.9678669E-01 </wgt>
<wgt id='1111'> +3.9657012E-01 </wgt>
<wgt id='1112'> +3.9789277E-01 </wgt>
<wgt id='1113'> +3.9508923E-01 </wgt>
<wgt id='1114'> +3.9622121E-01 </wgt>
<wgt id='1115'> +3.9675911E-01 </wgt>
<wgt id='1116'> +3.9689081E-01 </wgt>
<wgt id='1117'> +3.9518283E-01 </wgt>
<wgt id='1118'> +3.9528445E-01 </wgt>
<wgt id='1119'> +3.9610453E-01 </wgt>
<wgt id='1120'> +3.9492188E-01 </wgt>
<wgt id='1121'> +3.9508795E-01 </wgt>
<wgt id='1122'> +3.9590899E-01 </wgt>
<wgt id='1123'> +3.9542655E-01 </wgt>
<wgt id='1124'> +3.9566362E-01 </wgt>
<wgt id='1125'> +3.9505757E-01 </wgt>
<wgt id='1126'> +3.9550603E-01 </wgt>
<wgt id='1127'> +3.9535161E-01 </wgt>
<wgt id='1128'> +3.9555627E-01 </wgt>
<wgt id='1129'> +3.9575941E-01 </wgt>
<wgt id='1130'> +3.9537939E-01 </wgt>
<wgt id='1131'> +3.9598949E-01 </wgt>
<wgt id='1132'> +3.9583834E-01 </wgt>
<wgt id='1133'> +3.9553471E-01 </wgt>
<wgt id='1134'> +3.9536637E-01 </wgt>
<wgt id='1135'> +3.9526371E-01 </wgt>
<wgt id='1136'> +3.9528296E-01 </wgt>
<wgt id='1137'> +3.9490397E-01 </wgt>
<wgt id='1138'> +3.9599916E-01 </wgt>
<wgt id='1139'> +3.9564512E-01 </wgt>
<wgt id='1140'> +3.9568869E-01 </wgt>
<wgt id='1141'> +3.9510603E-01 </wgt>
<wgt id='1142'> +3.9604200E-01 </wgt>
<wgt id='1143'> +3.9576748E-01 </wgt>
<wgt id='1144'> +3.9528186E-01 </wgt>
<wgt id='1145'> +3.9533006E-01 </wgt>
<wgt id='1146'> +3.9565945E-01 </wgt>
<wgt id='1147'> +3.9549277E-01 </wgt>
<wgt id='1148'> +3.9556008E-01 </wgt>
<wgt id='1149'> +3.7647146E-01 </wgt>
<wgt id='1150'> +3.7459867E-01 </wgt>
<wgt id='1151'> +3.7722613E-01 </wgt>
<wgt id='1152'> +3.9026881E-01 </wgt>
<wgt id='1153'> +3.7264532E-01 </wgt>
<wgt id='1154'> +3.8492826E-01 </wgt>
<wgt id='1155'> +3.7455612E-01 </wgt>
<wgt id='1156'> +3.6227259E-01 </wgt>
<wgt id='1157'> +3.8193299E-01 </wgt>
<wgt id='1158'> +3.6881013E-01 </wgt>
<wgt id='1159'> +3.7597381E-01 </wgt>
<wgt id='1160'> +3.8365212E-01 </wgt>
<wgt id='1161'> +3.7316863E-01 </wgt>
<wgt id='1162'> +3.7082726E-01 </wgt>
<wgt id='1163'> +3.7664996E-01 </wgt>
<wgt id='1164'> +3.7837800E-01 </wgt>
<wgt id='1165'> +3.8479918E-01 </wgt>
<wgt id='1166'> +3.8462659E-01 </wgt>
<wgt id='1167'> +3.7779819E-01 </wgt>
<wgt id='1168'> +3.7290954E-01 </wgt>
<wgt id='1169'> +3.7311379E-01 </wgt>
<wgt id='1170'> +3.9006922E-01 </wgt>
<wgt id='1171'> +3.8942729E-01 </wgt>
<wgt id='1172'> +3.7775197E-01 </wgt>
<wgt id='1173'> +3.6779939E-01 </wgt>
<wgt id='1174'> +3.8667931E-01 </wgt>
<wgt id='1175'> +3.8968195E-01 </wgt>
<wgt id='1176'> +3.6472638E-01 </wgt>
<wgt id='1177'> +3.8195337E-01 </wgt>
<wgt id='1178'> +3.7137465E-01 </wgt>
<wgt id='1179'> +3.7794638E-01 </wgt>
<wgt id='1180'> +3.8669358E-01 </wgt>
<wgt id='1181'> +3.7239549E-01 </wgt>
<wgt id='1182'> +3.8231193E-01 </wgt>
<wgt id='1183'> +3.8102768E-01 </wgt>
<wgt id='1184'> +3.7000932E-01 </wgt>
<wgt id='1185'> +3.8459557E-01 </wgt>
<wgt id='1186'> +3.6952015E-01 </wgt>
<wgt id='1187'> +3.6390560E-01 </wgt>
<wgt id='1188'> +3.5027562E-01 </wgt>
<wgt id='1189'> +3.6298465E-01 </wgt>
<wgt id='1190'> +3.8119270E-01 </wgt>
<wgt id='1191'> +3.7222042E-01 </wgt>
<wgt id='1192'> +3.7312322E-01 </wgt>
<wgt id='1193'> +3.6549652E-01 </wgt>
<wgt id='1194'> +3.7202316E-01 </wgt>
<wgt id='1195'> +3.7738623E-01 </wgt>
<wgt id='1196'> +3.8669632E-01 </wgt>
<wgt id='1197'> +3.6791301E-01 </wgt>
<wgt id='1198'> +3.7254784E-01 </wgt>
<wgt id='1199'> +3.7123468E-01 </wgt>
<wgt id='1200'> +3.8486675E-01 </wgt>
<wgt id='1201'> +3.7605265E-01 </wgt>
<wgt id='1202'> +3.7412301E-01 </wgt>
<wgt id='1203'> +3.9242880E-01 </wgt>
<wgt id='1204'> +3.8112819E-01 </wgt>
<wgt id='1205'> +3.5943485E-01 </wgt>
<wgt id='1206'> +3.8520500E-01 </wgt>
<wgt id='1207'> +3.8628712E-01 </wgt>
<wgt id='1208'> +3.8096978E-01 </wgt>
<wgt id='1209'> +3.9295292E-01 </wgt>
<wgt id='1210'> +3.5940718E-01 </wgt>
<wgt id='1211'> +3.8268300E-01 </wgt>
<wgt id='1212'> +3.6883386E-01 </wgt>
<wgt id='1213'> +3.7957353E-01 </wgt>
<wgt id='1214'> +3.9036882E-01 </wgt>
<wgt id='1215'> +3.6461673E-01 </wgt>
<wgt id='1216'> +3.7670690E-01 </wgt>
<wgt id='1217'> +3.8061155E-01 </wgt>
<wgt id='1218'> +3.6951505E-01 </wgt>
<wgt id='1219'> +3.7114075E-01 </wgt>
<wgt id='1220'> +3.8318074E-01 </wgt>
<wgt id='1221'> +3.6393015E-01 </wgt>
<wgt id='1222'> +3.8372819E-01 </wgt>
<wgt id='1223'> +3.8297194E-01 </wgt>
<wgt id='1224'> +3.7334798E-01 </wgt>
<wgt id='1225'> +4.0434809E-01 </wgt>
<wgt id='1226'> +3.6535707E-01 </wgt>
<wgt id='1227'> +3.9239041E-01 </wgt>
<wgt id='1228'> +3.9060511E-01 </wgt>
<wgt id='1229'> +3.6378138E-01 </wgt>
<wgt id='1230'> +3.6925751E-01 </wgt>
<wgt id='1231'> +3.8479918E-01 </wgt>
<wgt id='1232'> +3.6117716E-01 </wgt>
<wgt id='1233'> +3.7975352E-01 </wgt>
<wgt id='1234'> +3.9140286E-01 </wgt>
<wgt id='1235'> +3.4020564E-01 </wgt>
<wgt id='1236'> +3.8354217E-01 </wgt>
<wgt id='1237'> +3.7200901E-01 </wgt>
<wgt id='1238'> +3.6405973E-01 </wgt>
<wgt id='1239'> +3.7777376E-01 </wgt>
<wgt id='1240'> +3.7962700E-01 </wgt>
<wgt id='1241'> +3.7508111E-01 </wgt>
<wgt id='1242'> +3.7217257E-01 </wgt>
<wgt id='1243'> +3.7412930E-01 </wgt>
<wgt id='1244'> +3.7457755E-01 </wgt>
<wgt id='1245'> +3.8037119E-01 </wgt>
<wgt id='1246'> +3.6334460E-01 </wgt>
<wgt id='1247'> +3.8216811E-01 </wgt>
<wgt id='1248'> +3.8560972E-01 </wgt>
<wgt id='1249'> +3.7443738E-01 </wgt>
<wgt id='1250'> +3.9487842E-01 </wgt>
<wgt id='1251'> +3.8847314E-01 </wgt>
<wgt id='1252'> +3.9035948E-01 </wgt>
<wgt id='1253'> +3.9645065E-01 </wgt>
<wgt id='1254'> +4.1031615E-01 </wgt>
<wgt id='1255'> +4.6234758E-01 </wgt>
<wgt id='1256'> +4.6651820E-01 </wgt>
<wgt id='1257'> +4.5995245E-01 </wgt>
<wgt id='1258'> +4.6184618E-01 </wgt>
<wgt id='1259'> +4.6260851E-01 </wgt>
<wgt id='1260'> +4.6367391E-01 </wgt>
<wgt id='1261'> +4.6056945E-01 </wgt>
<wgt id='1262'> +4.6332104E-01 </wgt>
<wgt id='1263'> +4.6173687E-01 </wgt>
<wgt id='1264'> +4.6186086E-01 </wgt>
<wgt id='1265'> +4.6269256E-01 </wgt>
<wgt id='1266'> +4.6227337E-01 </wgt>
<wgt id='1267'> +4.6242357E-01 </wgt>
<wgt id='1268'> +4.6400238E-01 </wgt>
<wgt id='1269'> +4.6061238E-01 </wgt>
<wgt id='1270'> +4.6064864E-01 </wgt>
<wgt id='1271'> +4.6379880E-01 </wgt>
<wgt id='1272'> +4.6428858E-01 </wgt>
<wgt id='1273'> +4.6087986E-01 </wgt>
<wgt id='1274'> +4.6128055E-01 </wgt>
<wgt id='1275'> +4.6372764E-01 </wgt>
<wgt id='1276'> +4.6131055E-01 </wgt>
<wgt id='1277'> +4.6347866E-01 </wgt>
<wgt id='1278'> +4.6039820E-01 </wgt>
<wgt id='1279'> +4.6399737E-01 </wgt>
<wgt id='1280'> +4.6326471E-01 </wgt>
<wgt id='1281'> +4.5997717E-01 </wgt>
<wgt id='1282'> +4.6624336E-01 </wgt>
<wgt id='1283'> +4.5817210E-01 </wgt>
<wgt id='1284'> +4.6120707E-01 </wgt>
<wgt id='1285'> +4.6369846E-01 </wgt>
<wgt id='1286'> +4.6587231E-01 </wgt>
<wgt id='1287'> +4.6207434E-01 </wgt>
<wgt id='1288'> +4.6227416E-01 </wgt>
<wgt id='1289'> +4.6239075E-01 </wgt>
<wgt id='1290'> +4.6289716E-01 </wgt>
<wgt id='1291'> +4.6216212E-01 </wgt>
<wgt id='1292'> +4.6420421E-01 </wgt>
<wgt id='1293'> +4.5948512E-01 </wgt>
<wgt id='1294'> +4.5869296E-01 </wgt>
<wgt id='1295'> +4.6391072E-01 </wgt>
<wgt id='1296'> +4.0215578E-01 </wgt>
<wgt id='1297'> +4.0320673E-01 </wgt>
<wgt id='1298'> +4.0131073E-01 </wgt>
<wgt id='1299'> +4.0018664E-01 </wgt>
<wgt id='1300'> +4.0435613E-01 </wgt>
<wgt id='1301'> +4.0102616E-01 </wgt>
<wgt id='1302'> +4.0384939E-01 </wgt>
<wgt id='1303'> +4.0197451E-01 </wgt>
<wgt id='1304'> +4.0228812E-01 </wgt>
<wgt id='1305'> +4.0268194E-01 </wgt>
<wgt id='1306'> +4.0144095E-01 </wgt>
<wgt id='1307'> +4.0473839E-01 </wgt>
<wgt id='1308'> +4.0057592E-01 </wgt>
<wgt id='1309'> +4.0269505E-01 </wgt>
<wgt id='1310'> +4.0144555E-01 </wgt>
<wgt id='1311'> +4.0269842E-01 </wgt>
<wgt id='1312'> +4.0192925E-01 </wgt>
<wgt id='1313'> +4.0304949E-01 </wgt>
<wgt id='1314'> +4.0085872E-01 </wgt>
<wgt id='1315'> +4.0066586E-01 </wgt>
<wgt id='1316'> +4.0359761E-01 </wgt>
<wgt id='1317'> +3.9925481E-01 </wgt>
<wgt id='1318'> +4.0743819E-01 </wgt>
<wgt id='1319'> +4.0381203E-01 </wgt>
<wgt id='1320'> +4.0135328E-01 </wgt>
<wgt id='1321'> +4.0146646E-01 </wgt>
<wgt id='1322'> +4.0258918E-01 </wgt>
<wgt id='1323'> +4.0374900E-01 </wgt>
<wgt id='1324'> +4.0056550E-01 </wgt>
<wgt id='1325'> +4.0204318E-01 </wgt>
<wgt id='1326'> +4.0256337E-01 </wgt>
<wgt id='1327'> +4.0286714E-01 </wgt>
<wgt id='1328'> +4.0187496E-01 </wgt>
<wgt id='1329'> +4.0242795E-01 </wgt>
<wgt id='1330'> +4.0198252E-01 </wgt>
<wgt id='1331'> +4.0329157E-01 </wgt>
<wgt id='1332'> +4.0236311E-01 </wgt>
<wgt id='1333'> +4.0432476E-01 </wgt>
<wgt id='1334'> +3.9863472E-01 </wgt>
<wgt id='1335'> +4.0322179E-01 </wgt>
<wgt id='1336'> +4.0196114E-01 </wgt>
<wgt id='1337'> +4.0215578E-01 </wgt>
<wgt id='1338'> +4.0213938E-01 </wgt>
<wgt id='1339'> +4.0214745E-01 </wgt>
<wgt id='1340'> +4.0215487E-01 </wgt>
<wgt id='1341'> +4.0217282E-01 </wgt>
<wgt id='1342'> +4.0222029E-01 </wgt>
<wgt id='1343'> +4.0221359E-01 </wgt>
<wgt id='1344'> +3.9313215E-01 </wgt>
<wgt id='1345'> +3.9467243E-01 </wgt>
<wgt id='1346'> +3.9162540E-01 </wgt>
<wgt id='1347'> +3.9659135E-01 </wgt>
<wgt id='1348'> +3.9060974E-01 </wgt>
<wgt id='1349'> +3.9262935E-01 </wgt>
<wgt id='1350'> +3.9356887E-01 </wgt>
<wgt id='1351'> +3.9316436E-01 </wgt>
<wgt id='1352'> +3.9310571E-01 </wgt>
<wgt id='1353'> +3.9430962E-01 </wgt>
<wgt id='1354'> +3.9231792E-01 </wgt>
<wgt id='1355'> +3.9208120E-01 </wgt>
<wgt id='1356'> +3.9396459E-01 </wgt>
<wgt id='1357'> +3.9392198E-01 </wgt>
<wgt id='1358'> +3.9264202E-01 </wgt>
<wgt id='1359'> +3.9284303E-01 </wgt>
<wgt id='1360'> +3.9374700E-01 </wgt>
<wgt id='1361'> +3.9570617E-01 </wgt>
<wgt id='1362'> +3.9118757E-01 </wgt>
<wgt id='1363'> +3.9508422E-01 </wgt>
<wgt id='1364'> +3.9080202E-01 </wgt>
<wgt id='1365'> +3.9357711E-01 </wgt>
<wgt id='1366'> +3.9308506E-01 </wgt>
<wgt id='1367'> +3.9192526E-01 </wgt>
<wgt id='1368'> +3.9381800E-01 </wgt>
<wgt id='1369'> +3.9159834E-01 </wgt>
<wgt id='1370'> +3.9465259E-01 </wgt>
<wgt id='1371'> +3.9251142E-01 </wgt>
<wgt id='1372'> +3.9419219E-01 </wgt>
<wgt id='1373'> +3.9376482E-01 </wgt>
<wgt id='1374'> +3.9276347E-01 </wgt>
<wgt id='1375'> +3.9439146E-01 </wgt>
<wgt id='1376'> +3.9275726E-01 </wgt>
<wgt id='1377'> +3.9322185E-01 </wgt>
<wgt id='1378'> +3.9293108E-01 </wgt>
<wgt id='1379'> +3.9398028E-01 </wgt>
<wgt id='1380'> +3.9380985E-01 </wgt>
<wgt id='1381'> +3.9189008E-01 </wgt>
<wgt id='1382'> +3.9222790E-01 </wgt>
<wgt id='1383'> +3.9299541E-01 </wgt>
<wgt id='1384'> +3.9411376E-01 </wgt>
<wgt id='1385'> +3.9313215E-01 </wgt>
<wgt id='1386'> +3.9303852E-01 </wgt>
<wgt id='1387'> +3.9304347E-01 </wgt>
<wgt id='1388'> +3.9309356E-01 </wgt>
<wgt id='1389'> +3.9314441E-01 </wgt>
<wgt id='1390'> +3.9319640E-01 </wgt>
<wgt id='1391'> +3.9324148E-01 </wgt>
<wgt id='1392'> +4.1729889E-01 </wgt>
<wgt id='1393'> +4.1736179E-01 </wgt>
<wgt id='1394'> +4.1722372E-01 </wgt>
<wgt id='1395'> +4.1752410E-01 </wgt>
<wgt id='1396'> +4.1712577E-01 </wgt>
<wgt id='1397'> +4.1900208E-01 </wgt>
<wgt id='1398'> +4.1564904E-01 </wgt>
<wgt id='1399'> +4.2001302E-01 </wgt>
<wgt id='1400'> +4.1395889E-01 </wgt>
<wgt id='1401'> +4.1546035E-01 </wgt>
<wgt id='1402'> +4.1954222E-01 </wgt>
<wgt id='1403'> +4.1670195E-01 </wgt>
<wgt id='1404'> +4.1847883E-01 </wgt>
<wgt id='1405'> +4.1690049E-01 </wgt>
<wgt id='1406'> +4.1783946E-01 </wgt>
<wgt id='1407'> +4.1658068E-01 </wgt>
<wgt id='1408'> +4.1779511E-01 </wgt>
<wgt id='1409'> +4.1665506E-01 </wgt>
<wgt id='1410'> +4.1797186E-01 </wgt>
<wgt id='1411'> +4.1735909E-01 </wgt>
<wgt id='1412'> +4.1724035E-01 </wgt>
<wgt id='1413'> +4.1954616E-01 </wgt>
<wgt id='1414'> +4.1490139E-01 </wgt>
<wgt id='1415'> +4.1910125E-01 </wgt>
<wgt id='1416'> +4.1525004E-01 </wgt>
<wgt id='1417'> +4.1770057E-01 </wgt>
<wgt id='1418'> +4.1675694E-01 </wgt>
<wgt id='1419'> +4.1808536E-01 </wgt>
<wgt id='1420'> +4.1676585E-01 </wgt>
<wgt id='1421'> +4.1927061E-01 </wgt>
<wgt id='1422'> +4.1503303E-01 </wgt>
<wgt id='1423'> +4.1915012E-01 </wgt>
<wgt id='1424'> +4.1590187E-01 </wgt>
<wgt id='1425'> +4.1745281E-01 </wgt>
<wgt id='1426'> +4.1707978E-01 </wgt>
<wgt id='1427'> +4.1665725E-01 </wgt>
<wgt id='1428'> +4.1837684E-01 </wgt>
<wgt id='1429'> +4.1714627E-01 </wgt>
<wgt id='1430'> +4.1751310E-01 </wgt>
<wgt id='1431'> +4.1732620E-01 </wgt>
<wgt id='1432'> +4.1720190E-01 </wgt>
<wgt id='1433'> +4.1556240E-01 </wgt>
<wgt id='1434'> +4.1901417E-01 </wgt>
<wgt id='1435'> +4.1740487E-01 </wgt>
<wgt id='1436'> +4.1796968E-01 </wgt>
<wgt id='1437'> +4.1722302E-01 </wgt>
<wgt id='1438'> +4.1755463E-01 </wgt>
<wgt id='1439'> +4.1858616E-01 </wgt>
<wgt id='1440'> +4.1394113E-01 </wgt>
<wgt id='1441'> +4.1828848E-01 </wgt>
<wgt id='1442'> +4.1692659E-01 </wgt>
<wgt id='1443'> +4.1614349E-01 </wgt>
<wgt id='1444'> +4.1623710E-01 </wgt>
<wgt id='1445'> +4.1605903E-01 </wgt>
<wgt id='1446'> +4.1636146E-01 </wgt>
<wgt id='1447'> +4.1598132E-01 </wgt>
<wgt id='1448'> +4.1798873E-01 </wgt>
<wgt id='1449'> +4.1444708E-01 </wgt>
<wgt id='1450'> +4.1877791E-01 </wgt>
<wgt id='1451'> +4.1320716E-01 </wgt>
<wgt id='1452'> +4.1442489E-01 </wgt>
<wgt id='1453'> +4.1779584E-01 </wgt>
<wgt id='1454'> +4.1545280E-01 </wgt>
<wgt id='1455'> +4.1761824E-01 </wgt>
<wgt id='1456'> +4.1567808E-01 </wgt>
<wgt id='1457'> +4.1696978E-01 </wgt>
<wgt id='1458'> +4.1547272E-01 </wgt>
<wgt id='1459'> +4.1652263E-01 </wgt>
<wgt id='1460'> +4.1548487E-01 </wgt>
<wgt id='1461'> +4.1686176E-01 </wgt>
<wgt id='1462'> +4.1642308E-01 </wgt>
<wgt id='1463'> +4.1590846E-01 </wgt>
<wgt id='1464'> +4.1811329E-01 </wgt>
<wgt id='1465'> +4.1356076E-01 </wgt>
<wgt id='1466'> +4.1836676E-01 </wgt>
<wgt id='1467'> +4.1439556E-01 </wgt>
<wgt id='1468'> +4.1494482E-01 </wgt>
<wgt id='1469'> +4.1733477E-01 </wgt>
<wgt id='1470'> +4.1689330E-01 </wgt>
<wgt id='1471'> +4.1573910E-01 </wgt>
<wgt id='1472'> +4.1774193E-01 </wgt>
<wgt id='1473'> +4.1423575E-01 </wgt>
<wgt id='1474'> +4.1749195E-01 </wgt>
<wgt id='1475'> +4.1464789E-01 </wgt>
<wgt id='1476'> +4.1619629E-01 </wgt>
<wgt id='1477'> +4.1607426E-01 </wgt>
<wgt id='1478'> +4.1558608E-01 </wgt>
<wgt id='1479'> +4.1715294E-01 </wgt>
<wgt id='1480'> +4.1599784E-01 </wgt>
<wgt id='1481'> +4.1638470E-01 </wgt>
<wgt id='1482'> +4.1609913E-01 </wgt>
<wgt id='1483'> +4.1614500E-01 </wgt>
<wgt id='1484'> +4.1433256E-01 </wgt>
<wgt id='1485'> +4.1791790E-01 </wgt>
<wgt id='1486'> +4.1649153E-01 </wgt>
<wgt id='1487'> +4.1664446E-01 </wgt>
<wgt id='1488'> +4.1599542E-01 </wgt>
<wgt id='1489'> +4.1656277E-01 </wgt>
<wgt id='1490'> +4.1778710E-01 </wgt>
<wgt id='1491'> +4.1256523E-01 </wgt>
<wgt id='1492'> +4.1757880E-01 </wgt>
<wgt id='1493'> +4.1551871E-01 </wgt>
<wgt id='1494'> +4.0068642E-01 </wgt>
<wgt id='1495'> +3.9937259E-01 </wgt>
<wgt id='1496'> +3.9992977E-01 </wgt>
<wgt id='1497'> +4.0040665E-01 </wgt>
<wgt id='1498'> +4.0067209E-01 </wgt>
<wgt id='1499'> +4.0062305E-01 </wgt>
<wgt id='1500'> +4.0359138E-01 </wgt>
<wgt id='1501'> +4.0298504E-01 </wgt>
<wgt id='1502'> +4.0240272E-01 </wgt>
<wgt id='1503'> +4.0182082E-01 </wgt>
<wgt id='1504'> +4.0122546E-01 </wgt>
<wgt id='1505'> +4.0012432E-01 </wgt>
<wgt id='1506'> +3.9957806E-01 </wgt>
<wgt id='1507'> +3.9904674E-01 </wgt>
<wgt id='1508'> +4.0062305E-01 </wgt>
<wgt id='1509'> +4.0077831E-01 </wgt>
<wgt id='1510'> +4.0069568E-01 </wgt>
<wgt id='1511'> +4.0056628E-01 </wgt>
<wgt id='1512'> +4.0050926E-01 </wgt>
<wgt id='1513'> +3.9433150E-01 </wgt>
<wgt id='1514'> +3.9419088E-01 </wgt>
<wgt id='1515'> +3.9449209E-01 </wgt>
<wgt id='1516'> +3.9509115E-01 </wgt>
<wgt id='1517'> +3.9355999E-01 </wgt>
<wgt id='1518'> +3.9501810E-01 </wgt>
<wgt id='1519'> +3.9403478E-01 </wgt>
<wgt id='1520'> +3.9775263E-01 </wgt>
<wgt id='1521'> +3.9092516E-01 </wgt>
<wgt id='1522'> +3.9339544E-01 </wgt>
<wgt id='1523'> +3.9521152E-01 </wgt>
<wgt id='1524'> +3.9694751E-01 </wgt>
<wgt id='1525'> +3.9319751E-01 </wgt>
<wgt id='1526'> +3.9458517E-01 </wgt>
<wgt id='1527'> +3.9401188E-01 </wgt>
<wgt id='1528'> +3.9336057E-01 </wgt>
<wgt id='1529'> +3.9537264E-01 </wgt>
<wgt id='1530'> +3.9562791E-01 </wgt>
<wgt id='1531'> +3.9357697E-01 </wgt>
<wgt id='1532'> +3.9341099E-01 </wgt>
<wgt id='1533'> +3.9557630E-01 </wgt>
<wgt id='1534'> +3.9203451E-01 </wgt>
<wgt id='1535'> +3.9595140E-01 </wgt>
<wgt id='1536'> +3.9405598E-01 </wgt>
<wgt id='1537'> +3.9456210E-01 </wgt>
<wgt id='1538'> +3.9387418E-01 </wgt>
<wgt id='1539'> +3.9517261E-01 </wgt>
<wgt id='1540'> +3.9524108E-01 </wgt>
<wgt id='1541'> +3.9349644E-01 </wgt>
<wgt id='1542'> +3.9306310E-01 </wgt>
<wgt id='1543'> +3.9795999E-01 </wgt>
<wgt id='1544'> +3.9462688E-01 </wgt>
<wgt id='1545'> +3.9352283E-01 </wgt>
<wgt id='1546'> +3.9338227E-01 </wgt>
<wgt id='1547'> +3.9591158E-01 </wgt>
<wgt id='1548'> +3.9561481E-01 </wgt>
<wgt id='1549'> +3.9351677E-01 </wgt>
<wgt id='1550'> +3.9434029E-01 </wgt>
<wgt id='1551'> +3.9432389E-01 </wgt>
<wgt id='1552'> +3.9440664E-01 </wgt>
<wgt id='1553'> +3.9422580E-01 </wgt>
<wgt id='1554'> +3.9455893E-01 </wgt>
<wgt id='1555'> +3.9329545E-01 </wgt>
<wgt id='1556'> +3.9439152E-01 </wgt>
<wgt id='1557'> +3.9512665E-01 </wgt>
<wgt id='1558'> +3.9161267E-01 </wgt>
<wgt id='1559'> +3.9563639E-01 </wgt>
<wgt id='1560'> +3.9526718E-01 </wgt>
<wgt id='1561'> +3.9385374E-01 </wgt>
<wgt id='1562'> +3.9240040E-01 </wgt>
<wgt id='1563'> +3.9526732E-01 </wgt>
<wgt id='1564'> +3.9433150E-01 </wgt>
<wgt id='1565'> +3.9423067E-01 </wgt>
<wgt id='1566'> +3.9284315E-01 </wgt>
<wgt id='1567'> +3.9367206E-01 </wgt>
<wgt id='1568'> +3.9622662E-01 </wgt>
<wgt id='1569'> +3.9571633E-01 </wgt>
<wgt id='1570'> +3.9518840E-01 </wgt>
<wgt id='1571'> +3.9470947E-01 </wgt>
<wgt id='1572'> +3.9413648E-01 </wgt>
<wgt id='1573'> +3.9319722E-01 </wgt>
<wgt id='1574'> +3.9253455E-01 </wgt>
<wgt id='1575'> +3.9207231E-01 </wgt>
<wgt id='1576'> +3.9367206E-01 </wgt>
<wgt id='1577'> +3.9389425E-01 </wgt>
<wgt id='1578'> +3.9377799E-01 </wgt>
<wgt id='1579'> +3.9356567E-01 </wgt>
<wgt id='1580'> +3.9347803E-01 </wgt>
<wgt id='1581'> +3.9963698E-01 </wgt>
<wgt id='1582'> +3.9941563E-01 </wgt>
<wgt id='1583'> +4.0145819E-01 </wgt>
<wgt id='1584'> +3.9772604E-01 </wgt>
<wgt id='1585'> +4.0062508E-01 </wgt>
<wgt id='1586'> +3.9861704E-01 </wgt>
<wgt id='1587'> +3.9253169E-01 </wgt>
<wgt id='1588'> +4.0013611E-01 </wgt>
<wgt id='1589'> +3.9984874E-01 </wgt>
<wgt id='1590'> +3.9848796E-01 </wgt>
<wgt id='1591'> +3.9886600E-01 </wgt>
<wgt id='1592'> +4.0245730E-01 </wgt>
<wgt id='1593'> +4.0067561E-01 </wgt>
<wgt id='1594'> +3.9906110E-01 </wgt>
<wgt id='1595'> +3.9961190E-01 </wgt>
<wgt id='1596'> +4.0231526E-01 </wgt>
<wgt id='1597'> +4.0066959E-01 </wgt>
<wgt id='1598'> +4.0154676E-01 </wgt>
<wgt id='1599'> +3.9978481E-01 </wgt>
<wgt id='1600'> +4.0105700E-01 </wgt>
<wgt id='1601'> +3.9921628E-01 </wgt>
<wgt id='1602'> +3.9934533E-01 </wgt>
<wgt id='1603'> +3.9931274E-01 </wgt>
<wgt id='1604'> +4.0003115E-01 </wgt>
<wgt id='1605'> +4.0020759E-01 </wgt>
<wgt id='1606'> +3.9958147E-01 </wgt>
<wgt id='1607'> +4.0073095E-01 </wgt>
<wgt id='1608'> +3.9894210E-01 </wgt>
<wgt id='1609'> +3.9935826E-01 </wgt>
<wgt id='1610'> +3.9924796E-01 </wgt>
<wgt id='1611'> +4.0111548E-01 </wgt>
<wgt id='1612'> +3.9313305E-01 </wgt>
<wgt id='1613'> +3.9218004E-01 </wgt>
<wgt id='1614'> +3.9466325E-01 </wgt>
<wgt id='1615'> +3.9463489E-01 </wgt>
<wgt id='1616'> +3.9286668E-01 </wgt>
<wgt id='1617'> +3.9291171E-01 </wgt>
<wgt id='1618'> +3.9325940E-01 </wgt>
<wgt id='1619'> +3.9109667E-01 </wgt>
<wgt id='1620'> +3.9290204E-01 </wgt>
<wgt id='1621'> +3.9400475E-01 </wgt>
<wgt id='1622'> +3.9395241E-01 </wgt>
<wgt id='1623'> +3.9307719E-01 </wgt>
<wgt id='1624'> +3.9306199E-01 </wgt>
<wgt id='1625'> +3.9426838E-01 </wgt>
<wgt id='1626'> +3.9538900E-01 </wgt>
<wgt id='1627'> +3.9268486E-01 </wgt>
<wgt id='1628'> +3.9316366E-01 </wgt>
<wgt id='1629'> +3.9354843E-01 </wgt>
<wgt id='1630'> +3.9408921E-01 </wgt>
<wgt id='1631'> +3.9338207E-01 </wgt>
<wgt id='1632'> +3.9419027E-01 </wgt>
<wgt id='1633'> +3.9197757E-01 </wgt>
<wgt id='1634'> +3.9458345E-01 </wgt>
<wgt id='1635'> +3.9274826E-01 </wgt>
<wgt id='1636'> +3.9379499E-01 </wgt>
<wgt id='1637'> +3.9449258E-01 </wgt>
<wgt id='1638'> +3.9290623E-01 </wgt>
<wgt id='1639'> +3.9403603E-01 </wgt>
<wgt id='1640'> +3.9332076E-01 </wgt>
<wgt id='1641'> +3.8929655E-01 </wgt>
<wgt id='1642'> +3.9234981E-01 </wgt>
<wgt id='1643'> +3.9268570E-01 </wgt>
<wgt id='1644'> +3.9244132E-01 </wgt>
<wgt id='1645'> +3.9319681E-01 </wgt>
<wgt id='1646'> +3.9324935E-01 </wgt>
<wgt id='1647'> +3.9261199E-01 </wgt>
<wgt id='1648'> +3.9292027E-01 </wgt>
<wgt id='1649'> +3.9355207E-01 </wgt>
<wgt id='1650'> +3.9252007E-01 </wgt>
<wgt id='1651'> +3.9325345E-01 </wgt>
<wgt id='1652'> +3.9354272E-01 </wgt>
<wgt id='1653'> +3.9282999E-01 </wgt>
<wgt id='1654'> +3.9238333E-01 </wgt>
<wgt id='1655'> +3.9387168E-01 </wgt>
<wgt id='1656'> +3.9292563E-01 </wgt>
<wgt id='1657'> +3.9370037E-01 </wgt>
<wgt id='1658'> +3.9378253E-01 </wgt>
<wgt id='1659'> +3.9433584E-01 </wgt>
<wgt id='1660'> +3.9446078E-01 </wgt>
<wgt id='1661'> +3.9376969E-01 </wgt>
<wgt id='1662'> +3.9598492E-01 </wgt>
<wgt id='1663'> +3.9548928E-01 </wgt>
<wgt id='1664'> +3.9296195E-01 </wgt>
<wgt id='1665'> +3.9369207E-01 </wgt>
<wgt id='1666'> +3.9488186E-01 </wgt>
<wgt id='1667'> +3.9354834E-01 </wgt>
<wgt id='1668'> +3.9315335E-01 </wgt>
<wgt id='1669'> +3.9373209E-01 </wgt>
<wgt id='1670'> +3.9639319E-01 </wgt>
<wgt id='1671'> +3.9512738E-01 </wgt>
<wgt id='1672'> +3.9321635E-01 </wgt>
<wgt id='1673'> +3.9420877E-01 </wgt>
<wgt id='1674'> +3.9305407E-01 </wgt>
<wgt id='1675'> +3.9383711E-01 </wgt>
<wgt id='1676'> +3.9442930E-01 </wgt>
<wgt id='1677'> +3.9382948E-01 </wgt>
<wgt id='1678'> +3.9259539E-01 </wgt>
<wgt id='1679'> +3.9392903E-01 </wgt>
<wgt id='1680'> +3.9243130E-01 </wgt>
<wgt id='1681'> +3.9360534E-01 </wgt>
<wgt id='1682'> +3.9224601E-01 </wgt>
<wgt id='1683'> +3.9361629E-01 </wgt>
<wgt id='1684'> +3.9232339E-01 </wgt>
<wgt id='1685'> +3.9237020E-01 </wgt>
<wgt id='1686'> +3.9330722E-01 </wgt>
<wgt id='1687'> +3.9305838E-01 </wgt>
<wgt id='1688'> +3.9386288E-01 </wgt>
<wgt id='1689'> +3.9282002E-01 </wgt>
<wgt id='1690'> +3.9409224E-01 </wgt>
<wgt id='1691'> +3.9382083E-01 </wgt>
<wgt id='1692'> +3.9360295E-01 </wgt>
<wgt id='1693'> +3.9198357E-01 </wgt>
<wgt id='1694'> +3.9281883E-01 </wgt>
<wgt id='1695'> +3.9380347E-01 </wgt>
<wgt id='1696'> +3.9396849E-01 </wgt>
<wgt id='1697'> +3.9318227E-01 </wgt>
<wgt id='1698'> +3.9230924E-01 </wgt>
<wgt id='1699'> +3.9405213E-01 </wgt>
<wgt id='1700'> +3.9195672E-01 </wgt>
<wgt id='1701'> +3.9369035E-01 </wgt>
<wgt id='1702'> +3.9292333E-01 </wgt>
<wgt id='1703'> +3.9347489E-01 </wgt>
<wgt id='1704'> +3.9276006E-01 </wgt>
<wgt id='1705'> +3.9400728E-01 </wgt>
<wgt id='1706'> +3.9378154E-01 </wgt>
<wgt id='1707'> +3.9284461E-01 </wgt>
<wgt id='1708'> +3.9331665E-01 </wgt>
<wgt id='1709'> +3.9410424E-01 </wgt>
<wgt id='1710'> +3.9310850E-01 </wgt>
<wgt id='1711'> +3.9336328E-01 </wgt>
<wgt id='1712'> +3.9340216E-01 </wgt>
<wgt id='1713'> +3.8673319E-01 </wgt>
<wgt id='1714'> +3.9793332E-01 </wgt>
<wgt id='1715'> +3.8212675E-01 </wgt>
<wgt id='1716'> +3.7659031E-01 </wgt>
<wgt id='1717'> +3.7946181E-01 </wgt>
<wgt id='1718'> +3.5923351E-01 </wgt>
<wgt id='1719'> +3.6951441E-01 </wgt>
<wgt id='1720'> +3.9065331E-01 </wgt>
<wgt id='1721'> +3.6371719E-01 </wgt>
<wgt id='1722'> +3.7764706E-01 </wgt>
<wgt id='1723'> +3.8692530E-01 </wgt>
<wgt id='1724'> +3.9884794E-01 </wgt>
<wgt id='1725'> +3.9132227E-01 </wgt>
<wgt id='1726'> +3.9453790E-01 </wgt>
<wgt id='1727'> +3.7975439E-01 </wgt>
<wgt id='1728'> +3.8721377E-01 </wgt>
<wgt id='1729'> +3.8399596E-01 </wgt>
<wgt id='1730'> +3.8981951E-01 </wgt>
<wgt id='1731'> +3.7063634E-01 </wgt>
<wgt id='1732'> +3.8976906E-01 </wgt>
<wgt id='1733'> +3.9519206E-01 </wgt>
<wgt id='1734'> +3.8787245E-01 </wgt>
<wgt id='1735'> +3.7649627E-01 </wgt>
<wgt id='1736'> +3.7654695E-01 </wgt>
<wgt id='1737'> +3.8157316E-01 </wgt>
<wgt id='1738'> +3.8156570E-01 </wgt>
<wgt id='1739'> +3.6428026E-01 </wgt>
<wgt id='1740'> +3.7513234E-01 </wgt>
<wgt id='1741'> +3.8986308E-01 </wgt>
<wgt id='1742'> +3.9743954E-01 </wgt>
<wgt id='1743'> +3.8459094E-01 </wgt>
<wgt id='1744'> +3.8488912E-01 </wgt>
<wgt id='1745'> +3.6912161E-01 </wgt>
<wgt id='1746'> +3.5657640E-01 </wgt>
<wgt id='1747'> +3.7621729E-01 </wgt>
<wgt id='1748'> +3.8177012E-01 </wgt>
<wgt id='1749'> +3.8929090E-01 </wgt>
<wgt id='1750'> +3.8712652E-01 </wgt>
<wgt id='1751'> +3.8020311E-01 </wgt>
<wgt id='1752'> +3.6182387E-01 </wgt>
<wgt id='1753'> +3.7640945E-01 </wgt>
<wgt id='1754'> +3.9584227E-01 </wgt>
<wgt id='1755'> +3.8286203E-01 </wgt>
<wgt id='1756'> +3.7993741E-01 </wgt>
<wgt id='1757'> +3.7226341E-01 </wgt>
<wgt id='1758'> +3.6717464E-01 </wgt>
<wgt id='1759'> +3.7265292E-01 </wgt>
<wgt id='1760'> +3.6761792E-01 </wgt>
<wgt id='1761'> +3.8307592E-01 </wgt>
<wgt id='1762'> +3.7975439E-01 </wgt>
<wgt id='1763'> +3.7885783E-01 </wgt>
<wgt id='1764'> +3.9246779E-01 </wgt>
<wgt id='1765'> +3.8517599E-01 </wgt>
<wgt id='1766'> +4.0871023E-01 </wgt>
<wgt id='1767'> +3.8811244E-01 </wgt>
<wgt id='1768'> +3.7616533E-01 </wgt>
<wgt id='1769'> +3.7963516E-01 </wgt>
<wgt id='1770'> +3.8495966E-01 </wgt>
<wgt id='1771'> +3.8116725E-01 </wgt>
<wgt id='1772'> +3.8977632E-01 </wgt>
<wgt id='1773'> +3.8234038E-01 </wgt>
<wgt id='1774'> +3.8762673E-01 </wgt>
<wgt id='1775'> +3.9376438E-01 </wgt>
<wgt id='1776'> +3.8921596E-01 </wgt>
<wgt id='1777'> +3.8473313E-01 </wgt>
<wgt id='1778'> +3.7836361E-01 </wgt>
<wgt id='1779'> +3.7737149E-01 </wgt>
<wgt id='1780'> +3.8763471E-01 </wgt>
<wgt id='1781'> +3.7860395E-01 </wgt>
<wgt id='1782'> +3.9327011E-01 </wgt>
<wgt id='1783'> +3.6669581E-01 </wgt>
<wgt id='1784'> +3.8975412E-01 </wgt>
<wgt id='1785'> +3.7465272E-01 </wgt>
<wgt id='1786'> +3.9163454E-01 </wgt>
<wgt id='1787'> +3.9025271E-01 </wgt>
<wgt id='1788'> +3.7997862E-01 </wgt>
<wgt id='1789'> +3.8417767E-01 </wgt>
<wgt id='1790'> +3.7520478E-01 </wgt>
<wgt id='1791'> +3.6575704E-01 </wgt>
<wgt id='1792'> +3.7779464E-01 </wgt>
<wgt id='1793'> +4.0497759E-01 </wgt>
<wgt id='1794'> +3.9175902E-01 </wgt>
<wgt id='1795'> +3.8952084E-01 </wgt>
<wgt id='1796'> +3.7584129E-01 </wgt>
<wgt id='1797'> +3.6526894E-01 </wgt>
<wgt id='1798'> +4.0956407E-01 </wgt>
<wgt id='1799'> +3.9685504E-01 </wgt>
<wgt id='1800'> +3.8736851E-01 </wgt>
<wgt id='1801'> +3.8201052E-01 </wgt>
<wgt id='1802'> +3.8479484E-01 </wgt>
<wgt id='1803'> +3.8254879E-01 </wgt>
<wgt id='1804'> +3.7339711E-01 </wgt>
<wgt id='1805'> +3.8264791E-01 </wgt>
<wgt id='1806'> +3.9356561E-01 </wgt>
<wgt id='1807'> +3.6486682E-01 </wgt>
<wgt id='1808'> +3.8881841E-01 </wgt>
<wgt id='1809'> +3.8080913E-01 </wgt>
<wgt id='1810'> +3.7890646E-01 </wgt>
<wgt id='1811'> +3.8591774E-01 </wgt>
<wgt id='1812'> +3.7199462E-01 </wgt>
<wgt id='1813'> +3.9096564E-01 </wgt>
<wgt id='1814'> +3.6751356E-01 </wgt>
<wgt id='1815'> +3.8473013E-01 </wgt>
<wgt id='1816'> +4.0432718E-01 </wgt>
<wgt id='1817'> +4.0820256E-01 </wgt>
<wgt id='1818'> +3.8900289E-01 </wgt>
<wgt id='1819'> +4.0251392E-01 </wgt>
<wgt id='1820'> +4.1002759E-01 </wgt>
<wgt id='1821'> +4.1797041E-01 </wgt>
<wgt id='1822'> +4.0468923E-01 </wgt>
<wgt id='1823'> +4.0652564E-01 </wgt>
<wgt id='1824'> +3.9192276E-01 </wgt>
<wgt id='1825'> +4.0905291E-01 </wgt>
<wgt id='1826'> +4.0234450E-01 </wgt>
<wgt id='1827'> +3.9365409E-01 </wgt>
<wgt id='1828'> +4.1387851E-01 </wgt>
<wgt id='1829'> +4.0289772E-01 </wgt>
<wgt id='1830'> +3.9108625E-01 </wgt>
<wgt id='1831'> +3.9769770E-01 </wgt>
<wgt id='1832'> +4.1064343E-01 </wgt>
<wgt id='1833'> +3.9833783E-01 </wgt>
<wgt id='1834'> +4.0579837E-01 </wgt>
<wgt id='1835'> +4.0768392E-01 </wgt>
<wgt id='1836'> +4.0935950E-01 </wgt>
<wgt id='1837'> +4.1011930E-01 </wgt>
<wgt id='1838'> +4.0011541E-01 </wgt>
<wgt id='1839'> +4.2592683E-01 </wgt>
<wgt id='1840'> +4.0280514E-01 </wgt>
<wgt id='1841'> +3.9612731E-01 </wgt>
<wgt id='1842'> +4.1043262E-01 </wgt>
<wgt id='1843'> +4.0167123E-01 </wgt>
<wgt id='1844'> +4.0107092E-01 </wgt>
<wgt id='1845'> +3.9890939E-01 </wgt>
<wgt id='1846'> +4.0925300E-01 </wgt>
<wgt id='1847'> +4.0248949E-01 </wgt>
<wgt id='1848'> +3.9822240E-01 </wgt>
<wgt id='1849'> +4.0119805E-01 </wgt>
<wgt id='1850'> +4.1478052E-01 </wgt>
<wgt id='1851'> +4.0882487E-01 </wgt>
<wgt id='1852'> +4.0768788E-01 </wgt>
<wgt id='1853'> +3.9164002E-01 </wgt>
<wgt id='1854'> +4.1200526E-01 </wgt>
<wgt id='1855'> +4.1291531E-01 </wgt>
<wgt id='1856'> +4.0554391E-01 </wgt>
<wgt id='1857'> +4.1904848E-01 </wgt>
<wgt id='1858'> +4.0221906E-01 </wgt>
<wgt id='1859'> +4.1076129E-01 </wgt>
<wgt id='1860'> +4.0626422E-01 </wgt>
<wgt id='1861'> +4.0546216E-01 </wgt>
<wgt id='1862'> +4.2104094E-01 </wgt>
<wgt id='1863'> +3.9413010E-01 </wgt>
<wgt id='1864'> +4.0329087E-01 </wgt>
<wgt id='1865'> +3.8924462E-01 </wgt>
<wgt id='1866'> +3.9975237E-01 </wgt>
<wgt id='1867'> +4.0617725E-01 </wgt>
<wgt id='1868'> +4.0063703E-01 </wgt>
<wgt id='1869'> +4.0906098E-01 </wgt>
<wgt id='1870'> +4.0817854E-01 </wgt>
<wgt id='1871'> +4.0600349E-01 </wgt>
<wgt id='1872'> +4.0119697E-01 </wgt>
<wgt id='1873'> +4.1733983E-01 </wgt>
<wgt id='1874'> +3.9739105E-01 </wgt>
<wgt id='1875'> +3.8753735E-01 </wgt>
<wgt id='1876'> +3.9884538E-01 </wgt>
<wgt id='1877'> +3.9800974E-01 </wgt>
<wgt id='1878'> +3.8916989E-01 </wgt>
<wgt id='1879'> +4.1837230E-01 </wgt>
<wgt id='1880'> +3.8689148E-01 </wgt>
<wgt id='1881'> +4.1542715E-01 </wgt>
<wgt id='1882'> +4.0589582E-01 </wgt>
<wgt id='1883'> +4.3065122E-01 </wgt>
<wgt id='1884'> +4.0347424E-01 </wgt>
<wgt id='1885'> +4.0738373E-01 </wgt>
<wgt id='1886'> +3.9408379E-01 </wgt>
<wgt id='1887'> +4.1978888E-01 </wgt>
<wgt id='1888'> +4.0396653E-01 </wgt>
<wgt id='1889'> +4.0990104E-01 </wgt>
<wgt id='1890'> +4.1409756E-01 </wgt>
<wgt id='1891'> +3.8870937E-01 </wgt>
<wgt id='1892'> +3.9511122E-01 </wgt>
<wgt id='1893'> +4.0334248E-01 </wgt>
<wgt id='1894'> +4.1184475E-01 </wgt>
<wgt id='1895'> +4.0933096E-01 </wgt>
<wgt id='1896'> +4.0205373E-01 </wgt>
<wgt id='1897'> +4.0363303E-01 </wgt>
<wgt id='1898'> +3.9793396E-01 </wgt>
<wgt id='1899'> +4.0425550E-01 </wgt>
<wgt id='1900'> +4.1356027E-01 </wgt>
<wgt id='1901'> +3.8466923E-01 </wgt>
<wgt id='1902'> +3.9884945E-01 </wgt>
<wgt id='1903'> +3.9465102E-01 </wgt>
<wgt id='1904'> +4.0362315E-01 </wgt>
<wgt id='1905'> +4.0878645E-01 </wgt>
<wgt id='1906'> +3.9485416E-01 </wgt>
<wgt id='1907'> +4.0821372E-01 </wgt>
<wgt id='1908'> +4.1332654E-01 </wgt>
<wgt id='1909'> +4.0686456E-01 </wgt>
<wgt id='1910'> +4.1311868E-01 </wgt>
<wgt id='1911'> +3.7508094E-01 </wgt>
<wgt id='1912'> +4.1018684E-01 </wgt>
<wgt id='1913'> +4.0416493E-01 </wgt>
<wgt id='1914'> +4.1670941E-01 </wgt>
<wgt id='1915'> +4.0858214E-01 </wgt>
<wgt id='1916'> +3.9455077E-01 </wgt>
<wgt id='1917'> +4.5632479E-01 </wgt>
<wgt id='1918'> +4.8074771E-01 </wgt>
<wgt id='1919'> +4.0432718E-01 </wgt>
<wgt id='1920'> +4.0820256E-01 </wgt>
<wgt id='1921'> +3.8900289E-01 </wgt>
<wgt id='1922'> +4.0251392E-01 </wgt>
<wgt id='1923'> +4.1002759E-01 </wgt>
<wgt id='1924'> +4.1797041E-01 </wgt>
<wgt id='1925'> +4.0468923E-01 </wgt>
<wgt id='1926'> +4.0652564E-01 </wgt>
<wgt id='1927'> +3.9192276E-01 </wgt>
<wgt id='1928'> +4.0905291E-01 </wgt>
<wgt id='1929'> +4.0234450E-01 </wgt>
<wgt id='1930'> +3.9365409E-01 </wgt>
<wgt id='1931'> +4.1387851E-01 </wgt>
<wgt id='1932'> +4.0289772E-01 </wgt>
<wgt id='1933'> +3.9108625E-01 </wgt>
<wgt id='1934'> +3.9769770E-01 </wgt>
<wgt id='1935'> +4.1064343E-01 </wgt>
<wgt id='1936'> +3.9833783E-01 </wgt>
<wgt id='1937'> +4.0579837E-01 </wgt>
<wgt id='1938'> +4.0768392E-01 </wgt>
<wgt id='1939'> +4.0935950E-01 </wgt>
<wgt id='1940'> +4.1011930E-01 </wgt>
<wgt id='1941'> +4.0011541E-01 </wgt>
<wgt id='1942'> +4.2592683E-01 </wgt>
<wgt id='1943'> +4.0280514E-01 </wgt>
<wgt id='1944'> +3.9612731E-01 </wgt>
<wgt id='1945'> +4.1043262E-01 </wgt>
<wgt id='1946'> +4.0167123E-01 </wgt>
<wgt id='1947'> +4.0107092E-01 </wgt>
<wgt id='1948'> +3.9890939E-01 </wgt>
<wgt id='1949'> +4.0925300E-01 </wgt>
<wgt id='1950'> +4.0248949E-01 </wgt>
<wgt id='1951'> +3.9822240E-01 </wgt>
<wgt id='1952'> +4.0119805E-01 </wgt>
<wgt id='1953'> +4.1478052E-01 </wgt>
<wgt id='1954'> +4.0882487E-01 </wgt>
<wgt id='1955'> +4.0768788E-01 </wgt>
<wgt id='1956'> +3.9164002E-01 </wgt>
<wgt id='1957'> +4.1200526E-01 </wgt>
<wgt id='1958'> +4.1291531E-01 </wgt>
<wgt id='1959'> +4.0554391E-01 </wgt>
<wgt id='1960'> +4.1904848E-01 </wgt>
<wgt id='1961'> +4.0221906E-01 </wgt>
<wgt id='1962'> +4.1076129E-01 </wgt>
<wgt id='1963'> +4.0626422E-01 </wgt>
<wgt id='1964'> +4.0546216E-01 </wgt>
<wgt id='1965'> +4.2104094E-01 </wgt>
<wgt id='1966'> +3.9413010E-01 </wgt>
<wgt id='1967'> +4.0329087E-01 </wgt>
<wgt id='1968'> +3.8924462E-01 </wgt>
<wgt id='1969'> +3.9975237E-01 </wgt>
<wgt id='1970'> +4.0617725E-01 </wgt>
<wgt id='1971'> +4.0063703E-01 </wgt>
<wgt id='1972'> +4.0906098E-01 </wgt>
<wgt id='1973'> +4.0817854E-01 </wgt>
<wgt id='1974'> +4.0600349E-01 </wgt>
<wgt id='1975'> +4.0119697E-01 </wgt>
<wgt id='1976'> +4.1733983E-01 </wgt>
<wgt id='1977'> +3.9739105E-01 </wgt>
<wgt id='1978'> +3.8753735E-01 </wgt>
<wgt id='1979'> +3.9884538E-01 </wgt>
<wgt id='1980'> +3.9800974E-01 </wgt>
<wgt id='1981'> +3.8916989E-01 </wgt>
<wgt id='1982'> +4.1837230E-01 </wgt>
<wgt id='1983'> +3.8689148E-01 </wgt>
<wgt id='1984'> +4.1542715E-01 </wgt>
<wgt id='1985'> +4.0589582E-01 </wgt>
<wgt id='1986'> +4.3065122E-01 </wgt>
<wgt id='1987'> +4.0347424E-01 </wgt>
<wgt id='1988'> +4.0738373E-01 </wgt>
<wgt id='1989'> +3.9408379E-01 </wgt>
<wgt id='1990'> +4.1978888E-01 </wgt>
<wgt id='1991'> +4.0396653E-01 </wgt>
<wgt id='1992'> +4.0990104E-01 </wgt>
<wgt id='1993'> +4.1409756E-01 </wgt>
<wgt id='1994'> +3.8870937E-01 </wgt>
<wgt id='1995'> +3.9511122E-01 </wgt>
<wgt id='1996'> +4.0334248E-01 </wgt>
<wgt id='1997'> +4.1184475E-01 </wgt>
<wgt id='1998'> +4.0933096E-01 </wgt>
<wgt id='1999'> +4.0205373E-01 </wgt>
<wgt id='2000'> +4.0363303E-01 </wgt>
<wgt id='2001'> +3.9793396E-01 </wgt>
<wgt id='2002'> +4.0425550E-01 </wgt>
<wgt id='2003'> +4.1356027E-01 </wgt>
<wgt id='2004'> +3.8466923E-01 </wgt>
<wgt id='2005'> +3.9884945E-01 </wgt>
<wgt id='2006'> +3.9465102E-01 </wgt>
<wgt id='2007'> +4.0362315E-01 </wgt>
<wgt id='2008'> +4.0878645E-01 </wgt>
<wgt id='2009'> +3.9485416E-01 </wgt>
<wgt id='2010'> +4.0821372E-01 </wgt>
<wgt id='2011'> +4.1332654E-01 </wgt>
<wgt id='2012'> +4.0686456E-01 </wgt>
<wgt id='2013'> +4.1311868E-01 </wgt>
<wgt id='2014'> +3.7508094E-01 </wgt>
<wgt id='2015'> +4.1018684E-01 </wgt>
<wgt id='2016'> +4.0416493E-01 </wgt>
<wgt id='2017'> +4.1670941E-01 </wgt>
<wgt id='2018'> +4.0858214E-01 </wgt>
<wgt id='2019'> +3.9455077E-01 </wgt>
<wgt id='2020'> +4.0499512E-01 </wgt>
<wgt id='2021'> +4.0540953E-01 </wgt>
<wgt id='2022'> +3.9861043E-01 </wgt>
</rwgt>
</event>
<event>
13      1 +3.9556008E-01 8.31084900e+01 7.81860800e-03 1.21346800e-01
        2 -1    0    0  501    0 +0.0000000000e+00 +0.0000000000e+00 +8.6335959303e+02 8.6335959303e+02 2.5500000000e-03 0.0000e+00 -1.0000e+00
       21 -1    0    0  502  503 +0.0000000000e+00 +0.0000000000e+00 -2.6261839652e+02 2.6261839652e+02 0.0000000000e+00 0.0000e+00 -1.0000e+00
  8000001  2    1    2  502    0 +7.2727226899e+00 -3.4709920127e+01 +2.2053385139e+02 6.4022533700e+02 5.9999635956e+02 0.0000e+00 0.0000e+00
        1  1    1    2  501    0 -1.7592331974e+01 +3.6610948170e+01 +4.3138954549e+02 4.3329757864e+02 5.0400000000e-03 0.0000e+00 -1.0000e+00
       -5  1    1    2    0  503 +1.0319609285e+01 -1.9010280427e+00 -5.1182200370e+01 5.2455073910e+01 4.6700000000e+00 0.0000e+00 1.0000e+00
        6  2    3    3  502    0 +4.6016603418e+01 +2.0877697675e+02 -1.9728518691e+01 2.8322569644e+02 1.8472202593e+02 0.0000e+00 0.0000e+00
        5  1    6    6  502    0 +8.4786791830e+01 +1.4874090457e+02 +9.2777527924e+00 1.7152417427e+02 4.6700000000e+00 0.0000e+00 -1.0000e+00
       24  2    6    6    0    0 -3.8770188412e+01 +6.0036072178e+01 -2.9006271483e+01 1.1170152217e+02 8.0798569276e+01 0.0000e+00 0.0000e+00
       14  1    8    8    0    0 -5.6337268621e+01 +5.8168201446e+01 -3.9901043615e+00 8.1076189032e+01 0.0000000000e+00 0.0000e+00 -1.0000e+00
      -13  1    8    8    0    0 +1.7567080209e+01 +1.8678707322e+00 -2.5016167122e+01 3.0625333135e+01 1.0566000000e-01 0.0000e+00 1.0000e+00
       23  2    3    3    0    0 -3.8743880728e+01 -2.4348689688e+02 +2.4026237008e+02 3.5699964056e+02 9.4529252816e+01 0.0000e+00 0.0000e+00
       16  1   11   11    0    0 -2.2068439373e+00 -1.5232185853e+02 +1.9864184762e+02 2.5033058616e+02 0.0000000000e+00 0.0000e+00 -1.0000e+00
      -16  1   11   11    0    0 -3.6537036791e+01 -9.1165038354e+01 +4.1620522462e+01 1.0666905440e+02 0.0000000000e+00 0.0000e+00 1.0000e+00
<mgrwt>
<rscale>  1 0.58081038e+02</rscale>
<asrwt>0</asrwt>
<pdfrwt beam="1">  1       21 0.40402830e-01 0.83108490e+02</pdfrwt>
<pdfrwt beam="2">  1        2 0.13282455e+00 0.40590402e+02</pdfrwt>
<totfact> 0.31029432e+03</totfact>
</mgrwt>
<rwgt>
<wgt id='1001'> +3.9556008E-01 </wgt>
<wgt id='1002'> +2.3881878E-01 </wgt>
<wgt id='1003'> +2.3874091E-01 </wgt>
<wgt id='1004'> +2.7479765E-01 </wgt>
<wgt id='1005'> +2.1660757E-01 </wgt>
<wgt id='1006'> +3.5370284E-01 </wgt>
<wgt id='1007'> +2.2033616E-01 </wgt>
<wgt id='1008'> +2.2026791E-01 </wgt>
<wgt id='1009'> +2.5166239E-01 </wgt>
<wgt id='1010'> +2.0078520E-01 </wgt>
<wgt id='1011'> +4.4912975E-01 </wgt>
<wgt id='1012'> +2.6077836E-01 </wgt>
<wgt id='1013'> +2.6068830E-01 </wgt>
<wgt id='1014'> +3.0276212E-01 </wgt>
<wgt id='1015'> +2.3520570E-01 </wgt>
<wgt id='1016'> +3.7448724E-01 </wgt>
<wgt id='1017'> +2.2692047E-01 </wgt>
<wgt id='1018'> +2.2684734E-01 </wgt>
<wgt id='1019'> +2.6068830E-01 </wgt>
<wgt id='1020'> +2.0601888E-01 </wgt>
<wgt id='1021'> +3.3485988E-01 </wgt>
<wgt id='1022'> +2.0935867E-01 </wgt>
<wgt id='1023'> +2.0929462E-01 </wgt>
<wgt id='1024'> +2.3874091E-01 </wgt>
<wgt id='1025'> +1.9096997E-01 </wgt>
<wgt id='1026'> +4.2520306E-01 </wgt>
<wgt id='1027'> +2.4778599E-01 </wgt>
<wgt id='1028'> +2.4770136E-01 </wgt>
<wgt id='1029'> +2.8721696E-01 </wgt>
<wgt id='1030'> +2.2370785E-01 </wgt>
<wgt id='1031'> +4.1729082E-01 </wgt>
<wgt id='1032'> +2.5174517E-01 </wgt>
<wgt id='1033'> +2.5166239E-01 </wgt>
<wgt id='1034'> +2.8979525E-01 </wgt>
<wgt id='1035'> +2.2806498E-01 </wgt>
<wgt id='1036'> +3.7313409E-01 </wgt>
<wgt id='1037'> +2.3226214E-01 </wgt>
<wgt id='1038'> +2.3218956E-01 </wgt>
<wgt id='1039'> +2.6539734E-01 </wgt>
<wgt id='1040'> +2.1140569E-01 </wgt>
<wgt id='1041'> +4.7380342E-01 </wgt>
<wgt id='1042'> +2.7489334E-01 </wgt>
<wgt id='1043'> +2.7479765E-01 </wgt>
<wgt id='1044'> +3.1928593E-01 </wgt>
<wgt id='1045'> +2.4764686E-01 </wgt>
<wgt id='1046'> +3.9556008E-01 </wgt>
<wgt id='1047'> +3.9556008E-01 </wgt>
<wgt id='1048'> +3.9556008E-01 </wgt>
<wgt id='1049'> +3.9629941E-01 </wgt>
<wgt id='1050'> +3.9480014E-01 </wgt>
<wgt id='1051'> +3.9551718E-01 </wgt>
<wgt id='1052'> +3.9534377E-01 </wgt>
<wgt id='1053'> +3.9730399E-01 </wgt>
<wgt id='1054'> +3.9518219E-01 </wgt>
<wgt id='1055'> +3.9617705E-01 </wgt>
<wgt id='1056'> +3.9619683E-01 </wgt>
<wgt id='1057'> +3.9598358E-01 </wgt>
<wgt id='1058'> +3.9524513E-01 </wgt>
<wgt id='1059'> +3.9471413E-01 </wgt>
<wgt id='1060'> +3.9511989E-01 </wgt>
<wgt id='1061'> +3.9567911E-01 </wgt>
<wgt id='1062'> +3.9670639E-01 </wgt>
<wgt id='1063'> +3.9600874E-01 </wgt>
<wgt id='1064'> +3.9580123E-01 </wgt>
<wgt id='1065'> +3.9588202E-01 </wgt>
<wgt id='1066'> +3.9469765E-01 </wgt>
<wgt id='1067'> +3.9703416E-01 </wgt>
<wgt id='1068'> +3.9389463E-01 </wgt>
<wgt id='1069'> +3.9508879E-01 </wgt>
<wgt id='1070'> +3.9553413E-01 </wgt>
<wgt id='1071'> +3.9513385E-01 </wgt>
<wgt id='1072'> +3.9619164E-01 </wgt>
<wgt id='1073'> +3.9553436E-01 </wgt>
<wgt id='1074'> +3.9514433E-01 </wgt>
<wgt id='1075'> +3.9442333E-01 </wgt>
<wgt id='1076'> +3.9640650E-01 </wgt>
<wgt id='1077'> +3.9667508E-01 </wgt>
<wgt id='1078'> +3.9542529E-01 </wgt>
<wgt id='1079'> +3.9729264E-01 </wgt>
<wgt id='1080'> +3.9547513E-01 </wgt>
<wgt id='1081'> +3.9609248E-01 </wgt>
<wgt id='1082'> +3.9622141E-01 </wgt>
<wgt id='1083'> +3.9536370E-01 </wgt>
<wgt id='1084'> +3.9495456E-01 </wgt>
<wgt id='1085'> +3.9649311E-01 </wgt>
<wgt id='1086'> +3.9519227E-01 </wgt>
<wgt id='1087'> +3.9548165E-01 </wgt>
<wgt id='1088'> +3.9644442E-01 </wgt>
<wgt id='1089'> +3.9692369E-01 </wgt>
<wgt id='1090'> +3.9609052E-01 </wgt>
<wgt id='1091'> +3.9547032E-01 </wgt>
<wgt id='1092'> +3.9501120E-01 </wgt>
<wgt id='1093'> +3.9541970E-01 </wgt>
<wgt id='1094'> +3.9518630E-01 </wgt>
<wgt id='1095'> +3.9515272E-01 </wgt>
<wgt id='1096'> +3.9444610E-01 </wgt>
<wgt id='1097'> +3.9575187E-01 </wgt>
<wgt id='1098'> +3.9496347E-01 </wgt>
<wgt id='1099'> +3.9542748E-01 </wgt>
<wgt id='1100'> +3.9600001E-01 </wgt>
<wgt id='1101'> +3.9574552E-01 </wgt>
<wgt id='1102'> +3.9597685E-01 </wgt>
<wgt id='1103'> +3.9586932E-01 </wgt>
<wgt id='1104'> +3.9583915E-01 </wgt>
<wgt id='1105'> +3.9611161E-01 </wgt>
<wgt id='1106'> +3.9564510E-01 </wgt>
<wgt id='1107'> +3.9601139E-01 </wgt>
<wgt id='1108'> +3.9540418E-01 </wgt>
<wgt id='1109'> +3.9572793E-01 </wgt>
<wgt id='1110'> +3.9548977E-01 </wgt>
<wgt id='1111'> +3.9534797E-01 </wgt>
<wgt id='1112'> +3.9527105E-01 </wgt>
<wgt id='1113'> +3.9583106E-01 </wgt>
<wgt id='1114'> +3.9544405E-01 </wgt>
<wgt id='1115'> +3.9567681E-01 </wgt>
<wgt id='1116'> +3.9540106E-01 </wgt>
<wgt id='1117'> +3.9565543E-01 </wgt>
<wgt id='1118'> +3.9531340E-01 </wgt>
<wgt id='1119'> +3.9545127E-01 </wgt>
<wgt id='1120'> +3.9576835E-01 </wgt>
<wgt id='1121'> +3.9535493E-01 </wgt>
<wgt id='1122'> +3.9558865E-01 </wgt>
<wgt id='1123'> +3.9542739E-01 </wgt>
<wgt id='1124'> +3.9577956E-01 </wgt>
<wgt id='1125'> +3.9600560E-01 </wgt>
<wgt id='1126'> +3.9569967E-01 </wgt>
<wgt id='1127'> +3.9567504E-01 </wgt>
<wgt id='1128'> +3.9567125E-01 </wgt>
<wgt id='1129'> +3.9531913E-01 </wgt>
<wgt id='1130'> +3.9553160E-01 </wgt>
<wgt id='1131'> +3.9556282E-01 </wgt>
<wgt id='1132'> +3.9573725E-01 </wgt>
<wgt id='1133'> +3.9564935E-01 </wgt>
<wgt id='1134'> +3.9534241E-01 </wgt>
<wgt id='1135'> +3.9540814E-01 </wgt>
<wgt id='1136'> +3.9523616E-01 </wgt>
<wgt id='1137'> +3.9546246E-01 </wgt>
<wgt id='1138'> +3.9577674E-01 </wgt>
<wgt id='1139'> +3.9563152E-01 </wgt>
<wgt id='1140'> +3.9576232E-01 </wgt>
<wgt id='1141'> +3.9557869E-01 </wgt>
<wgt id='1142'> +3.9549761E-01 </wgt>
<wgt id='1143'> +3.9587471E-01 </wgt>
<wgt id='1144'> +3.9551872E-01 </wgt>
<wgt id='1145'> +3.9558061E-01 </wgt>
<wgt id='1146'> +3.9560150E-01 </wgt>
<wgt id='1147'> +3.9568182E-01 </wgt>
<wgt id='1148'> +3.9556008E-01 </wgt>
<wgt id='1149'> +3.9731873E-01 </wgt>
<wgt id='1150'> +4.0029976E-01 </wgt>
<wgt id='1151'> +4.0241731E-01 </wgt>
<wgt id='1152'> +4.0365802E-01 </wgt>
<wgt id='1153'> +3.9049668E-01 </wgt>
<wgt id='1154'> +3.9217786E-01 </wgt>
<wgt id='1155'> +4.0226220E-01 </wgt>
<wgt id='1156'> +4.0416266E-01 </wgt>
<wgt id='1157'> +3.9888455E-01 </wgt>
<wgt id='1158'> +3.9900702E-01 </wgt>
<wgt id='1159'> +3.8344382E-01 </wgt>
<wgt id='1160'> +4.0002168E-01 </wgt>
<wgt id='1161'> +3.9792988E-01 </wgt>
<wgt id='1162'> +3.9325395E-01 </wgt>
<wgt id='1163'> +4.0345947E-01 </wgt>
<wgt id='1164'> +3.9941051E-01 </wgt>
<wgt id='1165'> +3.9792563E-01 </wgt>
<wgt id='1166'> +3.9830739E-01 </wgt>
<wgt id='1167'> +3.9889745E-01 </wgt>
<wgt id='1168'> +3.9687339E-01 </wgt>
<wgt id='1169'> +3.9188918E-01 </wgt>
<wgt id='1170'> +3.9548832E-01 </wgt>
<wgt id='1171'> +3.9476726E-01 </wgt>
<wgt id='1172'> +3.9879217E-01 </wgt>
<wgt id='1173'> +3.9068625E-01 </wgt>
<wgt id='1174'> +4.0194832E-01 </wgt>
<wgt id='1175'> +4.0550270E-01 </wgt>
<wgt id='1176'> +3.7890620E-01 </wgt>
<wgt id='1177'> +4.0510681E-01 </wgt>
<wgt id='1178'> +3.9876482E-01 </wgt>
<wgt id='1179'> +4.0223240E-01 </wgt>
<wgt id='1180'> +4.0025567E-01 </wgt>
<wgt id='1181'> +4.0078742E-01 </wgt>
<wgt id='1182'> +3.9873968E-01 </wgt>
<wgt id='1183'> +3.9155527E-01 </wgt>
<wgt id='1184'> +3.9401602E-01 </wgt>
<wgt id='1185'> +4.0350505E-01 </wgt>
<wgt id='1186'> +3.9991678E-01 </wgt>
<wgt id='1187'> +3.9518840E-01 </wgt>
<wgt id='1188'> +4.0095186E-01 </wgt>
<wgt id='1189'> +3.9916193E-01 </wgt>
<wgt id='1190'> +3.9926689E-01 </wgt>
<wgt id='1191'> +3.9722789E-01 </wgt>
<wgt id='1192'> +3.9085255E-01 </wgt>
<wgt id='1193'> +3.9479653E-01 </wgt>
<wgt id='1194'> +4.0258399E-01 </wgt>
<wgt id='1195'> +3.9728110E-01 </wgt>
<wgt id='1196'> +3.9794298E-01 </wgt>
<wgt id='1197'> +3.9646425E-01 </wgt>
<wgt id='1198'> +4.0354096E-01 </wgt>
<wgt id='1199'> +3.9396511E-01 </wgt>
<wgt id='1200'> +3.9930120E-01 </wgt>
<wgt id='1201'> +3.9770778E-01 </wgt>
<wgt id='1202'> +3.9754142E-01 </wgt>
<wgt id='1203'> +3.9951812E-01 </wgt>
<wgt id='1204'> +4.0066650E-01 </wgt>
<wgt id='1205'> +3.9435611E-01 </wgt>
<wgt id='1206'> +3.9764967E-01 </wgt>
<wgt id='1207'> +3.9939571E-01 </wgt>
<wgt id='1208'> +4.0437975E-01 </wgt>
<wgt id='1209'> +4.0472476E-01 </wgt>
<wgt id='1210'> +3.9202630E-01 </wgt>
<wgt id='1211'> +3.9522247E-01 </wgt>
<wgt id='1212'> +3.8839486E-01 </wgt>
<wgt id='1213'> +4.0171300E-01 </wgt>
<wgt id='1214'> +3.9888123E-01 </wgt>
<wgt id='1215'> +4.0797746E-01 </wgt>
<wgt id='1216'> +3.9585389E-01 </wgt>
<wgt id='1217'> +3.9919723E-01 </wgt>
<wgt id='1218'> +3.9946028E-01 </wgt>
<wgt id='1219'> +3.8957600E-01 </wgt>
<wgt id='1220'> +3.9940687E-01 </wgt>
<wgt id='1221'> +3.9409964E-01 </wgt>
<wgt id='1222'> +3.9458762E-01 </wgt>
<wgt id='1223'> +3.9522859E-01 </wgt>
<wgt id='1224'> +3.9803723E-01 </wgt>
<wgt id='1225'> +4.0433030E-01 </wgt>
<wgt id='1226'> +3.8582742E-01 </wgt>
<wgt id='1227'> +4.0750518E-01 </wgt>
<wgt id='1228'> +3.9631577E-01 </wgt>
<wgt id='1229'> +3.9244219E-01 </wgt>
<wgt id='1230'> +3.8857654E-01 </wgt>
<wgt id='1231'> +3.9792563E-01 </wgt>
<wgt id='1232'> +3.8533298E-01 </wgt>
<wgt id='1233'> +3.9566755E-01 </wgt>
<wgt id='1234'> +4.0581075E-01 </wgt>
<wgt id='1235'> +3.9324079E-01 </wgt>
<wgt id='1236'> +4.0073922E-01 </wgt>
<wgt id='1237'> +3.8980183E-01 </wgt>
<wgt id='1238'> +3.8485123E-01 </wgt>
<wgt id='1239'> +3.9930263E-01 </wgt>
<wgt id='1240'> +4.0064233E-01 </wgt>
<wgt id='1241'> +3.9886492E-01 </wgt>
<wgt id='1242'> +3.9560196E-01 </wgt>
<wgt id='1243'> +3.9472727E-01 </wgt>
<wgt id='1244'> +3.9327189E-01 </wgt>
<wgt id='1245'> +3.9987889E-01 </wgt>
<wgt id='1246'> +3.9092126E-01 </wgt>
<wgt id='1247'> +4.0118649E-01 </wgt>
<wgt id='1248'> +3.9981446E-01 </wgt>
<wgt id='1249'> +3.9812912E-01 </wgt>
<wgt id='1250'> +3.8279265E-01 </wgt>
<wgt id='1251'> +3.8010910E-01 </wgt>
<wgt id='1252'> +3.9053807E-01 </wgt>
<wgt id='1253'> +3.8648508E-01 </wgt>
<wgt id='1254'> +3.3105617E-01 </wgt>
<wgt id='1255'> +3.8710159E-01 </wgt>
<wgt id='1256'> +3.8856124E-01 </wgt>
<wgt id='1257'> +3.8625628E-01 </wgt>
<wgt id='1258'> +3.8618734E-01 </wgt>
<wgt id='1259'> +3.8757017E-01 </wgt>
<wgt id='1260'> +3.8752654E-01 </wgt>
<wgt id='1261'> +3.8651889E-01 </wgt>
<wgt id='1262'> +3.8745714E-01 </wgt>
<wgt id='1263'> +3.8687427E-01 </wgt>
<wgt id='1264'> +3.8693298E-01 </wgt>
<wgt id='1265'> +3.8722656E-01 </wgt>
<wgt id='1266'> +3.8737780E-01 </wgt>
<wgt id='1267'> +3.8682709E-01 </wgt>
<wgt id='1268'> +3.9032185E-01 </wgt>
<wgt id='1269'> +3.8387201E-01 </wgt>
<wgt id='1270'> +3.8636887E-01 </wgt>
<wgt id='1271'> +3.8742816E-01 </wgt>
<wgt id='1272'> +3.8712334E-01 </wgt>
<wgt id='1273'> +3.8707470E-01 </wgt>
<wgt id='1274'> +3.8701019E-01 </wgt>
<wgt id='1275'> +3.8728455E-01 </wgt>
<wgt id='1276'> +3.8623044E-01 </wgt>
<wgt id='1277'> +3.8802512E-01 </wgt>
<wgt id='1278'> +3.8498517E-01 </wgt>
<wgt id='1279'> +3.8873325E-01 </wgt>
<wgt id='1280'> +3.8620083E-01 </wgt>
<wgt id='1281'> +3.8936627E-01 </wgt>
<wgt id='1282'> +3.8969605E-01 </wgt>
<wgt id='1283'> +3.8401078E-01 </wgt>
<wgt id='1284'> +3.8644139E-01 </wgt>
<wgt id='1285'> +3.8740448E-01 </wgt>
<wgt id='1286'> +3.8698124E-01 </wgt>
<wgt id='1287'> +3.8708571E-01 </wgt>
<wgt id='1288'> +3.8710951E-01 </wgt>
<wgt id='1289'> +3.8703029E-01 </wgt>
<wgt id='1290'> +3.8768553E-01 </wgt>
<wgt id='1291'> +3.8689346E-01 </wgt>
<wgt id='1292'> +3.8858909E-01 </wgt>
<wgt id='1293'> +3.8474650E-01 </wgt>
<wgt id='1294'> +3.8481686E-01 </wgt>
<wgt id='1295'> +3.8740396E-01 </wgt>
<wgt id='1296'> +3.9047149E-01 </wgt>
<wgt id='1297'> +3.9145036E-01 </wgt>
<wgt id='1298'> +3.8967657E-01 </wgt>
<wgt id='1299'> +3.9010312E-01 </wgt>
<wgt id='1300'> +3.9087329E-01 </wgt>
<wgt id='1301'> +3.8970773E-01 </wgt>
<wgt id='1302'> +3.9161416E-01 </wgt>
<wgt id='1303'> +3.8964185E-01 </wgt>
<wgt id='1304'> +3.9102229E-01 </wgt>
<wgt id='1305'> +3.9066118E-01 </wgt>
<wgt id='1306'> +3.9019230E-01 </wgt>
<wgt id='1307'> +3.9149419E-01 </wgt>
<wgt id='1308'> +3.8982032E-01 </wgt>
<wgt id='1309'> +3.9078417E-01 </wgt>
<wgt id='1310'> +3.9005574E-01 </wgt>
<wgt id='1311'> +3.9352015E-01 </wgt>
<wgt id='1312'> +3.8936977E-01 </wgt>
<wgt id='1313'> +3.9091572E-01 </wgt>
<wgt id='1314'> +3.8975392E-01 </wgt>
<wgt id='1315'> +3.9048558E-01 </wgt>
<wgt id='1316'> +3.9043631E-01 </wgt>
<wgt id='1317'> +3.8906708E-01 </wgt>
<wgt id='1318'> +3.9309880E-01 </wgt>
<wgt id='1319'> +3.9203375E-01 </wgt>
<wgt id='1320'> +3.8964631E-01 </wgt>
<wgt id='1321'> +3.8919374E-01 </wgt>
<wgt id='1322'> +3.9107847E-01 </wgt>
<wgt id='1323'> +3.8995456E-01 </wgt>
<wgt id='1324'> +3.9098530E-01 </wgt>
<wgt id='1325'> +3.9051220E-01 </wgt>
<wgt id='1326'> +3.9033000E-01 </wgt>
<wgt id='1327'> +3.9104684E-01 </wgt>
<wgt id='1328'> +3.9025169E-01 </wgt>
<wgt id='1329'> +3.9088706E-01 </wgt>
<wgt id='1330'> +3.9023969E-01 </wgt>
<wgt id='1331'> +3.8914414E-01 </wgt>
<wgt id='1332'> +3.9125287E-01 </wgt>
<wgt id='1333'> +3.9312752E-01 </wgt>
<wgt id='1334'> +3.8695209E-01 </wgt>
<wgt id='1335'> +3.9101119E-01 </wgt>
<wgt id='1336'> +3.9032849E-01 </wgt>
<wgt id='1337'> +3.9047149E-01 </wgt>
<wgt id='1338'> +3.9015458E-01 </wgt>
<wgt id='1339'> +3.9029788E-01 </wgt>
<wgt id='1340'> +3.9042058E-01 </wgt>
<wgt id='1341'> +3.9060470E-01 </wgt>
<wgt id='1342'> +3.9068937E-01 </wgt>
<wgt id='1343'> +3.9074788E-01 </wgt>
<wgt id='1344'> +3.8749447E-01 </wgt>
<wgt id='1345'> +3.8876206E-01 </wgt>
<wgt id='1346'> +3.8624716E-01 </wgt>
<wgt id='1347'> +3.8849708E-01 </wgt>
<wgt id='1348'> +3.8674280E-01 </wgt>
<wgt id='1349'> +3.8647328E-01 </wgt>
<wgt id='1350'> +3.8837060E-01 </wgt>
<wgt id='1351'> +3.8749002E-01 </wgt>
<wgt id='1352'> +3.8751090E-01 </wgt>
<wgt id='1353'> +3.8828616E-01 </wgt>
<wgt id='1354'> +3.8694254E-01 </wgt>
<wgt id='1355'> +3.8693304E-01 </wgt>
<wgt id='1356'> +3.8793402E-01 </wgt>
<wgt id='1357'> +3.8723713E-01 </wgt>
<wgt id='1358'> +3.8764045E-01 </wgt>
<wgt id='1359'> +3.8628170E-01 </wgt>
<wgt id='1360'> +3.9051250E-01 </wgt>
<wgt id='1361'> +3.8934420E-01 </wgt>
<wgt id='1362'> +3.8626426E-01 </wgt>
<wgt id='1363'> +3.8771518E-01 </wgt>
<wgt id='1364'> +3.8726203E-01 </wgt>
<wgt id='1365'> +3.8846487E-01 </wgt>
<wgt id='1366'> +3.8717929E-01 </wgt>
<wgt id='1367'> +3.8570871E-01 </wgt>
<wgt id='1368'> +3.8832746E-01 </wgt>
<wgt id='1369'> +3.8702461E-01 </wgt>
<wgt id='1370'> +3.8786532E-01 </wgt>
<wgt id='1371'> +3.8780433E-01 </wgt>
<wgt id='1372'> +3.8721374E-01 </wgt>
<wgt id='1373'> +3.8875518E-01 </wgt>
<wgt id='1374'> +3.8708289E-01 </wgt>
<wgt id='1375'> +3.8847955E-01 </wgt>
<wgt id='1376'> +3.8724243E-01 </wgt>
<wgt id='1377'> +3.8756076E-01 </wgt>
<wgt id='1378'> +3.8746247E-01 </wgt>
<wgt id='1379'> +3.8890567E-01 </wgt>
<wgt id='1380'> +3.8613969E-01 </wgt>
<wgt id='1381'> +3.8579183E-01 </wgt>
<wgt id='1382'> +3.8733915E-01 </wgt>
<wgt id='1383'> +3.8737783E-01 </wgt>
<wgt id='1384'> +3.8779050E-01 </wgt>
<wgt id='1385'> +3.8749447E-01 </wgt>
<wgt id='1386'> +3.8700757E-01 </wgt>
<wgt id='1387'> +3.8722219E-01 </wgt>
<wgt id='1388'> +3.8735873E-01 </wgt>
<wgt id='1389'> +3.8758371E-01 </wgt>
<wgt id='1390'> +3.8767074E-01 </wgt>
<wgt id='1391'> +3.8770705E-01 </wgt>
<wgt id='1392'> +4.0309312E-01 </wgt>
<wgt id='1393'> +4.0304556E-01 </wgt>
<wgt id='1394'> +4.0314889E-01 </wgt>
<wgt id='1395'> +4.0348615E-01 </wgt>
<wgt id='1396'> +4.0281766E-01 </wgt>
<wgt id='1397'> +4.0436848E-01 </wgt>
<wgt id='1398'> +4.0186806E-01 </wgt>
<wgt id='1399'> +4.0318271E-01 </wgt>
<wgt id='1400'> +4.0299130E-01 </wgt>
<wgt id='1401'> +4.0199912E-01 </wgt>
<wgt id='1402'> +4.0444423E-01 </wgt>
<wgt id='1403'> +4.0309702E-01 </wgt>
<wgt id='1404'> +4.0309725E-01 </wgt>
<wgt id='1405'> +4.0235601E-01 </wgt>
<wgt id='1406'> +4.0412427E-01 </wgt>
<wgt id='1407'> +4.0290666E-01 </wgt>
<wgt id='1408'> +4.0322925E-01 </wgt>
<wgt id='1409'> +4.0481367E-01 </wgt>
<wgt id='1410'> +4.0111609E-01 </wgt>
<wgt id='1411'> +4.0236477E-01 </wgt>
<wgt id='1412'> +4.0366297E-01 </wgt>
<wgt id='1413'> +4.0320467E-01 </wgt>
<wgt id='1414'> +4.0298737E-01 </wgt>
<wgt id='1415'> +4.0571085E-01 </wgt>
<wgt id='1416'> +4.0046289E-01 </wgt>
<wgt id='1417'> +4.0263933E-01 </wgt>
<wgt id='1418'> +4.0364389E-01 </wgt>
<wgt id='1419'> +4.0371175E-01 </wgt>
<wgt id='1420'> +4.0263811E-01 </wgt>
<wgt id='1421'> +4.0456437E-01 </wgt>
<wgt id='1422'> +4.0148402E-01 </wgt>
<wgt id='1423'> +4.0319584E-01 </wgt>
<wgt id='1424'> +4.0283432E-01 </wgt>
<wgt id='1425'> +4.0347273E-01 </wgt>
<wgt id='1426'> +4.0271936E-01 </wgt>
<wgt id='1427'> +4.0258871E-01 </wgt>
<wgt id='1428'> +4.0233376E-01 </wgt>
<wgt id='1429'> +4.0246289E-01 </wgt>
<wgt id='1430'> +4.0367543E-01 </wgt>
<wgt id='1431'> +4.0262858E-01 </wgt>
<wgt id='1432'> +4.0343117E-01 </wgt>
<wgt id='1433'> +4.0147523E-01 </wgt>
<wgt id='1434'> +4.0509665E-01 </wgt>
<wgt id='1435'> +4.0337426E-01 </wgt>
<wgt id='1436'> +4.0284009E-01 </wgt>
<wgt id='1437'> +4.0236504E-01 </wgt>
<wgt id='1438'> +4.0489650E-01 </wgt>
<wgt id='1439'> +4.0554263E-01 </wgt>
<wgt id='1440'> +3.9868158E-01 </wgt>
<wgt id='1441'> +4.0407412E-01 </wgt>
<wgt id='1442'> +4.0318833E-01 </wgt>
<wgt id='1443'> +3.9744105E-01 </wgt>
<wgt id='1444'> +3.9739195E-01 </wgt>
<wgt id='1445'> +3.9748940E-01 </wgt>
<wgt id='1446'> +3.9785328E-01 </wgt>
<wgt id='1447'> +3.9716359E-01 </wgt>
<wgt id='1448'> +3.9876013E-01 </wgt>
<wgt id='1449'> +3.9621995E-01 </wgt>
<wgt id='1450'> +3.9747801E-01 </wgt>
<wgt id='1451'> +3.9739821E-01 </wgt>
<wgt id='1452'> +3.9631231E-01 </wgt>
<wgt id='1453'> +3.9853162E-01 </wgt>
<wgt id='1454'> +3.9734727E-01 </wgt>
<wgt id='1455'> +3.9764085E-01 </wgt>
<wgt id='1456'> +3.9655689E-01 </wgt>
<wgt id='1457'> +3.9902085E-01 </wgt>
<wgt id='1458'> +3.9737188E-01 </wgt>
<wgt id='1459'> +3.9748480E-01 </wgt>
<wgt id='1460'> +3.9902764E-01 </wgt>
<wgt id='1461'> +3.9551511E-01 </wgt>
<wgt id='1462'> +3.9635165E-01 </wgt>
<wgt id='1463'> +3.9837435E-01 </wgt>
<wgt id='1464'> +3.9762431E-01 </wgt>
<wgt id='1465'> +3.9720171E-01 </wgt>
<wgt id='1466'> +4.0092882E-01 </wgt>
<wgt id='1467'> +3.9508130E-01 </wgt>
<wgt id='1468'> +3.9743756E-01 </wgt>
<wgt id='1469'> +3.9748908E-01 </wgt>
<wgt id='1470'> +3.9807370E-01 </wgt>
<wgt id='1471'> +3.9705207E-01 </wgt>
<wgt id='1472'> +3.9864512E-01 </wgt>
<wgt id='1473'> +3.9606746E-01 </wgt>
<wgt id='1474'> +3.9763668E-01 </wgt>
<wgt id='1475'> +3.9704639E-01 </wgt>
<wgt id='1476'> +3.9798990E-01 </wgt>
<wgt id='1477'> +3.9700987E-01 </wgt>
<wgt id='1478'> +3.9702265E-01 </wgt>
<wgt id='1479'> +3.9662333E-01 </wgt>
<wgt id='1480'> +3.9692075E-01 </wgt>
<wgt id='1481'> +3.9793538E-01 </wgt>
<wgt id='1482'> +3.9695826E-01 </wgt>
<wgt id='1483'> +3.9784166E-01 </wgt>
<wgt id='1484'> +3.9585677E-01 </wgt>
<wgt id='1485'> +3.9937145E-01 </wgt>
<wgt id='1486'> +3.9803633E-01 </wgt>
<wgt id='1487'> +3.9696539E-01 </wgt>
<wgt id='1488'> +3.9666262E-01 </wgt>
<wgt id='1489'> +3.9928789E-01 </wgt>
<wgt id='1490'> +4.0060927E-01 </wgt>
<wgt id='1491'> +3.9272240E-01 </wgt>
<wgt id='1492'> +3.9906498E-01 </wgt>
<wgt id='1493'> +3.9734573E-01 </wgt>
<wgt id='1494'> +3.8680781E-01 </wgt>
<wgt id='1495'> +3.7905543E-01 </wgt>
<wgt id='1496'> +3.8172160E-01 </wgt>
<wgt id='1497'> +3.8429906E-01 </wgt>
<wgt id='1498'> +3.8908304E-01 </wgt>
<wgt id='1499'> +3.8671857E-01 </wgt>
<wgt id='1500'> +3.8908065E-01 </wgt>
<wgt id='1501'> +3.8868322E-01 </wgt>
<wgt id='1502'> +3.8823112E-01 </wgt>
<wgt id='1503'> +3.8775421E-01 </wgt>
<wgt id='1504'> +3.8728201E-01 </wgt>
<wgt id='1505'> +3.8624084E-01 </wgt>
<wgt id='1506'> +3.8567938E-01 </wgt>
<wgt id='1507'> +3.8512077E-01 </wgt>
<wgt id='1508'> +3.8671857E-01 </wgt>
<wgt id='1509'> +3.8670232E-01 </wgt>
<wgt id='1510'> +3.8670587E-01 </wgt>
<wgt id='1511'> +3.8675713E-01 </wgt>
<wgt id='1512'> +3.8678346E-01 </wgt>
<wgt id='1513'> +3.8713875E-01 </wgt>
<wgt id='1514'> +3.8690974E-01 </wgt>
<wgt id='1515'> +3.8743634E-01 </wgt>
<wgt id='1516'> +3.8768460E-01 </wgt>
<wgt id='1517'> +3.8660286E-01 </wgt>
<wgt id='1518'> +3.8807134E-01 </wgt>
<wgt id='1519'> +3.8677000E-01 </wgt>
<wgt id='1520'> +3.8780782E-01 </wgt>
<wgt id='1521'> +3.8646338E-01 </wgt>
<wgt id='1522'> +3.8654831E-01 </wgt>
<wgt id='1523'> +3.8772333E-01 </wgt>
<wgt id='1524'> +3.8828730E-01 </wgt>
<wgt id='1525'> +3.8664084E-01 </wgt>
<wgt id='1526'> +3.8684051E-01 </wgt>
<wgt id='1527'> +3.8749902E-01 </wgt>
<wgt id='1528'> +3.8645703E-01 </wgt>
<wgt id='1529'> +3.8788640E-01 </wgt>
<wgt id='1530'> +3.8961529E-01 </wgt>
<wgt id='1531'> +3.8573801E-01 </wgt>
<wgt id='1532'> +3.8881862E-01 </wgt>
<wgt id='1533'> +3.8483562E-01 </wgt>
<wgt id='1534'> +3.8621242E-01 </wgt>
<wgt id='1535'> +3.8778400E-01 </wgt>
<wgt id='1536'> +3.8749908E-01 </wgt>
<wgt id='1537'> +3.8683242E-01 </wgt>
<wgt id='1538'> +3.8602768E-01 </wgt>
<wgt id='1539'> +3.8978855E-01 </wgt>
<wgt id='1540'> +3.8735203E-01 </wgt>
<wgt id='1541'> +3.8685473E-01 </wgt>
<wgt id='1542'> +3.8631106E-01 </wgt>
<wgt id='1543'> +3.8957906E-01 </wgt>
<wgt id='1544'> +3.8684031E-01 </wgt>
<wgt id='1545'> +3.8720387E-01 </wgt>
<wgt id='1546'> +3.8642858E-01 </wgt>
<wgt id='1547'> +3.8795132E-01 </wgt>
<wgt id='1548'> +3.8694289E-01 </wgt>
<wgt id='1549'> +3.8660615E-01 </wgt>
<wgt id='1550'> +3.8722924E-01 </wgt>
<wgt id='1551'> +3.8683274E-01 </wgt>
<wgt id='1552'> +3.8650372E-01 </wgt>
<wgt id='1553'> +3.8748533E-01 </wgt>
<wgt id='1554'> +3.8757829E-01 </wgt>
<wgt id='1555'> +3.8567140E-01 </wgt>
<wgt id='1556'> +3.8752217E-01 </wgt>
<wgt id='1557'> +3.8624847E-01 </wgt>
<wgt id='1558'> +3.8421343E-01 </wgt>
<wgt id='1559'> +3.8895166E-01 </wgt>
<wgt id='1560'> +3.8955625E-01 </wgt>
<wgt id='1561'> +3.8599410E-01 </wgt>
<wgt id='1562'> +3.8513860E-01 </wgt>
<wgt id='1563'> +3.8814372E-01 </wgt>
<wgt id='1564'> +3.8713875E-01 </wgt>
<wgt id='1565'> +3.8441317E-01 </wgt>
<wgt id='1566'> +3.8853710E-01 </wgt>
<wgt id='1567'> +3.8644364E-01 </wgt>
<wgt id='1568'> +3.8869763E-01 </wgt>
<wgt id='1569'> +3.8834249E-01 </wgt>
<wgt id='1570'> +3.8786406E-01 </wgt>
<wgt id='1571'> +3.8734212E-01 </wgt>
<wgt id='1572'> +3.8693313E-01 </wgt>
<wgt id='1573'> +3.8590262E-01 </wgt>
<wgt id='1574'> +3.8514745E-01 </wgt>
<wgt id='1575'> +3.8462219E-01 </wgt>
<wgt id='1576'> +3.8644364E-01 </wgt>
<wgt id='1577'> +3.8630430E-01 </wgt>
<wgt id='1578'> +3.8637677E-01 </wgt>
<wgt id='1579'> +3.8650081E-01 </wgt>
<wgt id='1580'> +3.8656753E-01 </wgt>
<wgt id='1581'> +3.8635807E-01 </wgt>
<wgt id='1582'> +3.8675996E-01 </wgt>
<wgt id='1583'> +3.8788672E-01 </wgt>
<wgt id='1584'> +3.8457472E-01 </wgt>
<wgt id='1585'> +3.8753123E-01 </wgt>
<wgt id='1586'> +3.8307662E-01 </wgt>
<wgt id='1587'> +3.8347763E-01 </wgt>
<wgt id='1588'> +3.8943466E-01 </wgt>
<wgt id='1589'> +3.8615795E-01 </wgt>
<wgt id='1590'> +3.8768294E-01 </wgt>
<wgt id='1591'> +3.8551599E-01 </wgt>
<wgt id='1592'> +3.8644300E-01 </wgt>
<wgt id='1593'> +3.8707933E-01 </wgt>
<wgt id='1594'> +3.8630524E-01 </wgt>
<wgt id='1595'> +3.8595801E-01 </wgt>
<wgt id='1596'> +3.8925091E-01 </wgt>
<wgt id='1597'> +3.8756067E-01 </wgt>
<wgt id='1598'> +3.8620251E-01 </wgt>
<wgt id='1599'> +3.8671015E-01 </wgt>
<wgt id='1600'> +3.8793650E-01 </wgt>
<wgt id='1601'> +3.8560363E-01 </wgt>
<wgt id='1602'> +3.8729558E-01 </wgt>
<wgt id='1603'> +3.8686049E-01 </wgt>
<wgt id='1604'> +3.8647992E-01 </wgt>
<wgt id='1605'> +3.8598475E-01 </wgt>
<wgt id='1606'> +3.8680720E-01 </wgt>
<wgt id='1607'> +3.8684351E-01 </wgt>
<wgt id='1608'> +3.8644506E-01 </wgt>
<wgt id='1609'> +3.8714993E-01 </wgt>
<wgt id='1610'> +3.8594902E-01 </wgt>
<wgt id='1611'> +3.8864250E-01 </wgt>
<wgt id='1612'> +3.9312909E-01 </wgt>
<wgt id='1613'> +3.9294252E-01 </wgt>
<wgt id='1614'> +3.9342453E-01 </wgt>
<wgt id='1615'> +3.9350349E-01 </wgt>
<wgt id='1616'> +3.9314901E-01 </wgt>
<wgt id='1617'> +3.9289694E-01 </wgt>
<wgt id='1618'> +3.9329834E-01 </wgt>
<wgt id='1619'> +3.9181136E-01 </wgt>
<wgt id='1620'> +3.9217626E-01 </wgt>
<wgt id='1621'> +3.9358536E-01 </wgt>
<wgt id='1622'> +3.9377376E-01 </wgt>
<wgt id='1623'> +3.9267373E-01 </wgt>
<wgt id='1624'> +3.9286648E-01 </wgt>
<wgt id='1625'> +3.9343117E-01 </wgt>
<wgt id='1626'> +3.9489619E-01 </wgt>
<wgt id='1627'> +3.9309047E-01 </wgt>
<wgt id='1628'> +3.9343339E-01 </wgt>
<wgt id='1629'> +3.9346228E-01 </wgt>
<wgt id='1630'> +3.9361177E-01 </wgt>
<wgt id='1631'> +3.9345418E-01 </wgt>
<wgt id='1632'> +3.9454958E-01 </wgt>
<wgt id='1633'> +3.9277380E-01 </wgt>
<wgt id='1634'> +3.9473504E-01 </wgt>
<wgt id='1635'> +3.9263686E-01 </wgt>
<wgt id='1636'> +3.9298318E-01 </wgt>
<wgt id='1637'> +3.9460532E-01 </wgt>
<wgt id='1638'> +3.9301163E-01 </wgt>
<wgt id='1639'> +3.9389801E-01 </wgt>
<wgt id='1640'> +3.9322847E-01 </wgt>
<wgt id='1641'> +3.8963701E-01 </wgt>
<wgt id='1642'> +3.9252185E-01 </wgt>
<wgt id='1643'> +3.9328016E-01 </wgt>
<wgt id='1644'> +3.9202583E-01 </wgt>
<wgt id='1645'> +3.9257803E-01 </wgt>
<wgt id='1646'> +3.9372448E-01 </wgt>
<wgt id='1647'> +3.9254157E-01 </wgt>
<wgt id='1648'> +3.9294220E-01 </wgt>
<wgt id='1649'> +3.9353681E-01 </wgt>
<wgt id='1650'> +3.9283182E-01 </wgt>
<wgt id='1651'> +3.9333343E-01 </wgt>
<wgt id='1652'> +3.9297165E-01 </wgt>
<wgt id='1653'> +3.9318926E-01 </wgt>
<wgt id='1654'> +3.9271949E-01 </wgt>
<wgt id='1655'> +3.9387683E-01 </wgt>
<wgt id='1656'> +3.9337720E-01 </wgt>
<wgt id='1657'> +3.9286036E-01 </wgt>
<wgt id='1658'> +3.9376628E-01 </wgt>
<wgt id='1659'> +3.9428117E-01 </wgt>
<wgt id='1660'> +3.9304833E-01 </wgt>
<wgt id='1661'> +3.9314610E-01 </wgt>
<wgt id='1662'> +3.9277535E-01 </wgt>
<wgt id='1663'> +3.9333844E-01 </wgt>
<wgt id='1664'> +3.9309595E-01 </wgt>
<wgt id='1665'> +3.9301495E-01 </wgt>
<wgt id='1666'> +3.9315528E-01 </wgt>
<wgt id='1667'> +3.9279798E-01 </wgt>
<wgt id='1668'> +3.9312807E-01 </wgt>
<wgt id='1669'> +3.9311974E-01 </wgt>
<wgt id='1670'> +3.9291748E-01 </wgt>
<wgt id='1671'> +3.9311905E-01 </wgt>
<wgt id='1672'> +3.9411111E-01 </wgt>
<wgt id='1673'> +3.9323476E-01 </wgt>
<wgt id='1674'> +3.9325695E-01 </wgt>
<wgt id='1675'> +3.9315863E-01 </wgt>
<wgt id='1676'> +3.9288255E-01 </wgt>
<wgt id='1677'> +3.9330932E-01 </wgt>
<wgt id='1678'> +3.9296853E-01 </wgt>
<wgt id='1679'> +3.9332565E-01 </wgt>
<wgt id='1680'> +3.9370005E-01 </wgt>
<wgt id='1681'> +3.9332507E-01 </wgt>
<wgt id='1682'> +3.9292531E-01 </wgt>
<wgt id='1683'> +3.9300680E-01 </wgt>
<wgt id='1684'> +3.9322483E-01 </wgt>
<wgt id='1685'> +3.9330643E-01 </wgt>
<wgt id='1686'> +3.9290012E-01 </wgt>
<wgt id='1687'> +3.9283971E-01 </wgt>
<wgt id='1688'> +3.9311709E-01 </wgt>
<wgt id='1689'> +3.9305995E-01 </wgt>
<wgt id='1690'> +3.9333663E-01 </wgt>
<wgt id='1691'> +3.9277546E-01 </wgt>
<wgt id='1692'> +3.9350934E-01 </wgt>
<wgt id='1693'> +3.9329312E-01 </wgt>
<wgt id='1694'> +3.9324282E-01 </wgt>
<wgt id='1695'> +3.9319521E-01 </wgt>
<wgt id='1696'> +3.9333241E-01 </wgt>
<wgt id='1697'> +3.9301300E-01 </wgt>
<wgt id='1698'> +3.9290186E-01 </wgt>
<wgt id='1699'> +3.9292892E-01 </wgt>
<wgt id='1700'> +3.9290469E-01 </wgt>
<wgt id='1701'> +3.9328919E-01 </wgt>
<wgt id='1702'> +3.9335935E-01 </wgt>
<wgt id='1703'> +3.9280369E-01 </wgt>
<wgt id='1704'> +3.9322966E-01 </wgt>
<wgt id='1705'> +3.9299139E-01 </wgt>
<wgt id='1706'> +3.9334613E-01 </wgt>
<wgt id='1707'> +3.9312959E-01 </wgt>
<wgt id='1708'> +3.9331590E-01 </wgt>
<wgt id='1709'> +3.9322579E-01 </wgt>
<wgt id='1710'> +3.9318854E-01 </wgt>
<wgt id='1711'> +3.9327393E-01 </wgt>
<wgt id='1712'> +3.9317502E-01 </wgt>
<wgt id='1713'> +3.8551733E-01 </wgt>
<wgt id='1714'> +3.9934250E-01 </wgt>
<wgt id='1715'> +3.9868726E-01 </wgt>
<wgt id='1716'> +3.9575728E-01 </wgt>
<wgt id='1717'> +3.9711122E-01 </wgt>
<wgt id='1718'> +3.9350215E-01 </wgt>
<wgt id='1719'> +3.9274270E-01 </wgt>
<wgt id='1720'> +4.0512598E-01 </wgt>
<wgt id='1721'> +3.8881943E-01 </wgt>
<wgt id='1722'> +4.0104509E-01 </wgt>
<wgt id='1723'> +4.0565837E-01 </wgt>
<wgt id='1724'> +3.9884503E-01 </wgt>
<wgt id='1725'> +4.0603970E-01 </wgt>
<wgt id='1726'> +4.0498029E-01 </wgt>
<wgt id='1727'> +3.9993679E-01 </wgt>
<wgt id='1728'> +3.9907231E-01 </wgt>
<wgt id='1729'> +4.0002969E-01 </wgt>
<wgt id='1730'> +3.9783083E-01 </wgt>
<wgt id='1731'> +3.7121688E-01 </wgt>
<wgt id='1732'> +4.1192493E-01 </wgt>
<wgt id='1733'> +4.0111633E-01 </wgt>
<wgt id='1734'> +3.9433752E-01 </wgt>
<wgt id='1735'> +3.8397516E-01 </wgt>
<wgt id='1736'> +3.9292059E-01 </wgt>
<wgt id='1737'> +4.0025031E-01 </wgt>
<wgt id='1738'> +4.0112678E-01 </wgt>
<wgt id='1739'> +4.0052146E-01 </wgt>
<wgt id='1740'> +3.9750507E-01 </wgt>
<wgt id='1741'> +3.9364958E-01 </wgt>
<wgt id='1742'> +4.0814528E-01 </wgt>
<wgt id='1743'> +3.9101542E-01 </wgt>
<wgt id='1744'> +3.9981659E-01 </wgt>
<wgt id='1745'> +3.8678634E-01 </wgt>
<wgt id='1746'> +3.9609760E-01 </wgt>
<wgt id='1747'> +3.9691539E-01 </wgt>
<wgt id='1748'> +3.9003954E-01 </wgt>
<wgt id='1749'> +4.0846425E-01 </wgt>
<wgt id='1750'> +3.9954471E-01 </wgt>
<wgt id='1751'> +4.0026449E-01 </wgt>
<wgt id='1752'> +3.9066557E-01 </wgt>
<wgt id='1753'> +3.9295438E-01 </wgt>
<wgt id='1754'> +4.0054322E-01 </wgt>
<wgt id='1755'> +4.0080871E-01 </wgt>
<wgt id='1756'> +3.9468472E-01 </wgt>
<wgt id='1757'> +3.9268762E-01 </wgt>
<wgt id='1758'> +3.9660629E-01 </wgt>
<wgt id='1759'> +3.9518356E-01 </wgt>
<wgt id='1760'> +3.9206742E-01 </wgt>
<wgt id='1761'> +4.0137408E-01 </wgt>
<wgt id='1762'> +3.9993679E-01 </wgt>
<wgt id='1763'> +4.0121305E-01 </wgt>
<wgt id='1764'> +4.0579991E-01 </wgt>
<wgt id='1765'> +4.0488025E-01 </wgt>
<wgt id='1766'> +4.0790957E-01 </wgt>
<wgt id='1767'> +3.9061341E-01 </wgt>
<wgt id='1768'> +3.9073955E-01 </wgt>
<wgt id='1769'> +4.0296500E-01 </wgt>
<wgt id='1770'> +4.0935013E-01 </wgt>
<wgt id='1771'> +3.9996125E-01 </wgt>
<wgt id='1772'> +3.9382362E-01 </wgt>
<wgt id='1773'> +3.9920029E-01 </wgt>
<wgt id='1774'> +3.8776536E-01 </wgt>
<wgt id='1775'> +3.9911245E-01 </wgt>
<wgt id='1776'> +3.9999265E-01 </wgt>
<wgt id='1777'> +4.0515921E-01 </wgt>
<wgt id='1778'> +3.9073952E-01 </wgt>
<wgt id='1779'> +3.9377420E-01 </wgt>
<wgt id='1780'> +4.0796983E-01 </wgt>
<wgt id='1781'> +4.0032970E-01 </wgt>
<wgt id='1782'> +4.0787873E-01 </wgt>
<wgt id='1783'> +3.9075344E-01 </wgt>
<wgt id='1784'> +4.0526799E-01 </wgt>
<wgt id='1785'> +4.0148056E-01 </wgt>
<wgt id='1786'> +4.0599959E-01 </wgt>
<wgt id='1787'> +4.0467166E-01 </wgt>
<wgt id='1788'> +3.9336110E-01 </wgt>
<wgt id='1789'> +4.0097630E-01 </wgt>
<wgt id='1790'> +4.0773695E-01 </wgt>
<wgt id='1791'> +3.8372950E-01 </wgt>
<wgt id='1792'> +4.0716154E-01 </wgt>
<wgt id='1793'> +4.0558669E-01 </wgt>
<wgt id='1794'> +3.9688306E-01 </wgt>
<wgt id='1795'> +3.9983919E-01 </wgt>
<wgt id='1796'> +4.0378261E-01 </wgt>
<wgt id='1797'> +3.9693953E-01 </wgt>
<wgt id='1798'> +4.0610665E-01 </wgt>
<wgt id='1799'> +3.9931772E-01 </wgt>
<wgt id='1800'> +4.0086655E-01 </wgt>
<wgt id='1801'> +3.9518321E-01 </wgt>
<wgt id='1802'> +4.0214512E-01 </wgt>
<wgt id='1803'> +4.0035032E-01 </wgt>
<wgt id='1804'> +4.0538606E-01 </wgt>
<wgt id='1805'> +3.9614467E-01 </wgt>
<wgt id='1806'> +3.9944656E-01 </wgt>
<wgt id='1807'> +3.9014631E-01 </wgt>
<wgt id='1808'> +3.9465507E-01 </wgt>
<wgt id='1809'> +3.9578125E-01 </wgt>
<wgt id='1810'> +3.9596509E-01 </wgt>
<wgt id='1811'> +4.0238400E-01 </wgt>
<wgt id='1812'> +3.9616165E-01 </wgt>
<wgt id='1813'> +4.0392191E-01 </wgt>
<wgt id='1814'> +4.0316008E-01 </wgt>
<wgt id='1815'> +4.0797673E-01 </wgt>
<wgt id='1816'> +3.9281586E-01 </wgt>
<wgt id='1817'> +3.9943649E-01 </wgt>
<wgt id='1818'> +3.8846382E-01 </wgt>
<wgt id='1819'> +3.9726706E-01 </wgt>
<wgt id='1820'> +3.9587931E-01 </wgt>
<wgt id='1821'> +4.0462940E-01 </wgt>
<wgt id='1822'> +4.0139208E-01 </wgt>
<wgt id='1823'> +3.9044892E-01 </wgt>
<wgt id='1824'> +3.9044161E-01 </wgt>
<wgt id='1825'> +3.9294398E-01 </wgt>
<wgt id='1826'> +3.8441689E-01 </wgt>
<wgt id='1827'> +3.7940146E-01 </wgt>
<wgt id='1828'> +4.0185813E-01 </wgt>
<wgt id='1829'> +4.0173939E-01 </wgt>
<wgt id='1830'> +3.8317567E-01 </wgt>
<wgt id='1831'> +3.9554051E-01 </wgt>
<wgt id='1832'> +3.8977972E-01 </wgt>
<wgt id='1833'> +3.8737556E-01 </wgt>
<wgt id='1834'> +3.8792444E-01 </wgt>
<wgt id='1835'> +3.9650409E-01 </wgt>
<wgt id='1836'> +3.9317118E-01 </wgt>
<wgt id='1837'> +3.9976189E-01 </wgt>
<wgt id='1838'> +3.8453549E-01 </wgt>
<wgt id='1839'> +4.1411771E-01 </wgt>
<wgt id='1840'> +3.9108549E-01 </wgt>
<wgt id='1841'> +3.9310416E-01 </wgt>
<wgt id='1842'> +3.9616246E-01 </wgt>
<wgt id='1843'> +3.8374036E-01 </wgt>
<wgt id='1844'> +3.8829776E-01 </wgt>
<wgt id='1845'> +3.9132192E-01 </wgt>
<wgt id='1846'> +3.9866052E-01 </wgt>
<wgt id='1847'> +3.8983905E-01 </wgt>
<wgt id='1848'> +3.8659336E-01 </wgt>
<wgt id='1849'> +3.8795120E-01 </wgt>
<wgt id='1850'> +3.9681010E-01 </wgt>
<wgt id='1851'> +3.9119919E-01 </wgt>
<wgt id='1852'> +3.9800313E-01 </wgt>
<wgt id='1853'> +3.8906364E-01 </wgt>
<wgt id='1854'> +3.9832175E-01 </wgt>
<wgt id='1855'> +3.9175194E-01 </wgt>
<wgt id='1856'> +3.9043048E-01 </wgt>
<wgt id='1857'> +4.0156595E-01 </wgt>
<wgt id='1858'> +3.9616703E-01 </wgt>
<wgt id='1859'> +3.9391848E-01 </wgt>
<wgt id='1860'> +3.9056297E-01 </wgt>
<wgt id='1861'> +3.8647684E-01 </wgt>
<wgt id='1862'> +4.0273451E-01 </wgt>
<wgt id='1863'> +3.9064632E-01 </wgt>
<wgt id='1864'> +3.9167689E-01 </wgt>
<wgt id='1865'> +3.8957652E-01 </wgt>
<wgt id='1866'> +3.9286511E-01 </wgt>
<wgt id='1867'> +3.9552021E-01 </wgt>
<wgt id='1868'> +3.9246587E-01 </wgt>
<wgt id='1869'> +3.9890310E-01 </wgt>
<wgt id='1870'> +3.9484860E-01 </wgt>
<wgt id='1871'> +3.9219565E-01 </wgt>
<wgt id='1872'> +3.8611086E-01 </wgt>
<wgt id='1873'> +4.0158019E-01 </wgt>
<wgt id='1874'> +3.9269406E-01 </wgt>
<wgt id='1875'> +3.8984202E-01 </wgt>
<wgt id='1876'> +3.9471911E-01 </wgt>
<wgt id='1877'> +3.9465894E-01 </wgt>
<wgt id='1878'> +3.9232339E-01 </wgt>
<wgt id='1879'> +3.9936283E-01 </wgt>
<wgt id='1880'> +3.7462060E-01 </wgt>
<wgt id='1881'> +3.9285430E-01 </wgt>
<wgt id='1882'> +3.8660915E-01 </wgt>
<wgt id='1883'> +4.1057347E-01 </wgt>
<wgt id='1884'> +3.9055132E-01 </wgt>
<wgt id='1885'> +3.8535467E-01 </wgt>
<wgt id='1886'> +3.8234679E-01 </wgt>
<wgt id='1887'> +3.9657154E-01 </wgt>
<wgt id='1888'> +3.9928236E-01 </wgt>
<wgt id='1889'> +3.8820957E-01 </wgt>
<wgt id='1890'> +4.0074828E-01 </wgt>
<wgt id='1891'> +3.9268017E-01 </wgt>
<wgt id='1892'> +3.9413330E-01 </wgt>
<wgt id='1893'> +3.8977725E-01 </wgt>
<wgt id='1894'> +3.9953233E-01 </wgt>
<wgt id='1895'> +3.9410878E-01 </wgt>
<wgt id='1896'> +3.8922525E-01 </wgt>
<wgt id='1897'> +3.9120662E-01 </wgt>
<wgt id='1898'> +3.9220413E-01 </wgt>
<wgt id='1899'> +3.9297098E-01 </wgt>
<wgt id='1900'> +3.8994681E-01 </wgt>
<wgt id='1901'> +3.8755808E-01 </wgt>
<wgt id='1902'> +3.8563235E-01 </wgt>
<wgt id='1903'> +3.9225463E-01 </wgt>
<wgt id='1904'> +3.9666037E-01 </wgt>
<wgt id='1905'> +3.9732724E-01 </wgt>
<wgt id='1906'> +3.8703801E-01 </wgt>
<wgt id='1907'> +3.9228879E-01 </wgt>
<wgt id='1908'> +3.9084396E-01 </wgt>
<wgt id='1909'> +3.8921765E-01 </wgt>
<wgt id='1910'> +3.9405816E-01 </wgt>
<wgt id='1911'> +3.7933654E-01 </wgt>
<wgt id='1912'> +3.9380501E-01 </wgt>
<wgt id='1913'> +3.9021808E-01 </wgt>
<wgt id='1914'> +4.0133904E-01 </wgt>
<wgt id='1915'> +3.9740910E-01 </wgt>
<wgt id='1916'> +3.8774218E-01 </wgt>
<wgt id='1917'> +3.7514743E-01 </wgt>
<wgt id='1918'> +3.9886585E-01 </wgt>
<wgt id='1919'> +3.9281586E-01 </wgt>
<wgt id='1920'> +3.9943649E-01 </wgt>
<wgt id='1921'> +3.8846382E-01 </wgt>
<wgt id='1922'> +3.9726706E-01 </wgt>
<wgt id='1923'> +3.9587931E-01 </wgt>
<wgt id='1924'> +4.0462940E-01 </wgt>
<wgt id='1925'> +4.0139208E-01 </wgt>
<wgt id='1926'> +3.9044892E-01 </wgt>
<wgt id='1927'> +3.9044161E-01 </wgt>
<wgt id='1928'> +3.9294398E-01 </wgt>
<wgt id='1929'> +3.8441689E-01 </wgt>
<wgt id='1930'> +3.7940146E-01 </wgt>
<wgt id='1931'> +4.0185813E-01 </wgt>
<wgt id='1932'> +4.0173939E-01 </wgt>
<wgt id='1933'> +3.8317567E-01 </wgt>
<wgt id='1934'> +3.9554051E-01 </wgt>
<wgt id='1935'> +3.8977972E-01 </wgt>
<wgt id='1936'> +3.8737556E-01 </wgt>
<wgt id='1937'> +3.8792444E-01 </wgt>
<wgt id='1938'> +3.9650409E-01 </wgt>
<wgt id='1939'> +3.9317118E-01 </wgt>
<wgt id='1940'> +3.9976189E-01 </wgt>
<wgt id='1941'> +3.8453549E-01 </wgt>
<wgt id='1942'> +4.1411771E-01 </wgt>
<wgt id='1943'> +3.9108549E-01 </wgt>
<wgt id='1944'> +3.9310416E-01 </wgt>
<wgt id='1945'> +3.9616246E-01 </wgt>
<wgt id='1946'> +3.8374036E-01 </wgt>
<wgt id='1947'> +3.8829776E-01 </wgt>
<wgt id='1948'> +3.9132192E-01 </wgt>
<wgt id='1949'> +3.9866052E-01 </wgt>
<wgt id='1950'> +3.8983905E-01 </wgt>
<wgt id='1951'> +3.8659336E-01 </wgt>
<wgt id='1952'> +3.8795120E-01 </wgt>
<wgt id='1953'> +3.9681010E-01 </wgt>
<wgt id='1954'> +3.9119919E-01 </wgt>
<wgt id='1955'> +3.9800313E-01 </wgt>
<wgt id='1956'> +3.8906364E-01 </wgt>
<wgt id='1957'> +3.9832175E-01 </wgt>
<wgt id='1958'> +3.9175194E-01 </wgt>
<wgt id='1959'> +3.9043048E-01 </wgt>
<wgt id='1960'> +4.0156595E-01 </wgt>
<wgt id='1961'> +3.9616703E-01 </wgt>
<wgt id='1962'> +3.9391848E-01 </wgt>
<wgt id='1963'> +3.9056297E-01 </wgt>
<wgt id='1964'> +3.8647684E-01 </wgt>
<wgt id='1965'> +4.0273451E-01 </wgt>
<wgt id='1966'> +3.9064632E-01 </wgt>
<wgt id='1967'> +3.9167689E-01 </wgt>
<wgt id='1968'> +3.8957652E-01 </wgt>
<wgt id='1969'> +3.9286511E-01 </wgt>
<wgt id='1970'> +3.9552021E-01 </wgt>
<wgt id='1971'> +3.9246587E-01 </wgt>
<wgt id='1972'> +3.9890310E-01 </wgt>
<wgt id='1973'> +3.9484860E-01 </wgt>
<wgt id='1974'> +3.9219565E-01 </wgt>
<wgt id='1975'> +3.8611086E-01 </wgt>
<wgt id='1976'> +4.0158019E-01 </wgt>
<wgt id='1977'> +3.9269406E-01 </wgt>
<wgt id='1978'> +3.8984202E-01 </wgt>
<wgt id='1979'> +3.9471911E-01 </wgt>
<wgt id='1980'> +3.9465894E-01 </wgt>
<wgt id='1981'> +3.9232339E-01 </wgt>
<wgt id='1982'> +3.9936283E-01 </wgt>
<wgt id='1983'> +3.7462060E-01 </wgt>
<wgt id='1984'> +3.9285430E-01 </wgt>
<wgt id='1985'> +3.8660915E-01 </wgt>
<wgt id='1986'> +4.1057347E-01 </wgt>
<wgt id='1987'> +3.9055132E-01 </wgt>
<wgt id='1988'> +3.8535467E-01 </wgt>
<wgt id='1989'> +3.8234679E-01 </wgt>
<wgt id='1990'> +3.9657154E-01 </wgt>
<wgt id='1991'> +3.9928236E-01 </wgt>
<wgt id='1992'> +3.8820957E-01 </wgt>
<wgt id='1993'> +4.0074828E-01 </wgt>
<wgt id='1994'> +3.9268017E-01 </wgt>
<wgt id='1995'> +3.9413330E-01 </wgt>
<wgt id='1996'> +3.8977725E-01 </wgt>
<wgt id='1997'> +3.9953233E-01 </wgt>
<wgt id='1998'> +3.9410878E-01 </wgt>
<wgt id='1999'> +3.8922525E-01 </wgt>
<wgt id='2000'> +3.9120662E-01 </wgt>
<wgt id='2001'> +3.9220413E-01 </wgt>
<wgt id='2002'> +3.9297098E-01 </wgt>
<wgt id='2003'> +3.8994681E-01 </wgt>
<wgt id='2004'> +3.8755808E-01 </wgt>
<wgt id='2005'> +3.8563235E-01 </wgt>
<wgt id='2006'> +3.9225463E-01 </wgt>
<wgt id='2007'> +3.9666037E-01 </wgt>
<wgt id='2008'> +3.9732724E-01 </wgt>
<wgt id='2009'> +3.8703801E-01 </wgt>
<wgt id='2010'> +3.9228879E-01 </wgt>
<wgt id='2011'> +3.9084396E-01 </wgt>
<wgt id='2012'> +3.8921765E-01 </wgt>
<wgt id='2013'> +3.9405816E-01 </wgt>
<wgt id='2014'> +3.7933654E-01 </wgt>
<wgt id='2015'> +3.9380501E-01 </wgt>
<wgt id='2016'> +3.9021808E-01 </wgt>
<wgt id='2017'> +4.0133904E-01 </wgt>
<wgt id='2018'> +3.9740910E-01 </wgt>
<wgt id='2019'> +3.8774218E-01 </wgt>
<wgt id='2020'> +3.9106137E-01 </wgt>
<wgt id='2021'> +3.9510091E-01 </wgt>
<wgt id='2022'> +3.9182487E-01 </wgt>
</rwgt>
</event>
<event>
13      2 +3.9556008E-01 9.55089200e+01 7.81860800e-03 1.33820100e-01
        1 -1    0    0  501    0 +0.0000000000e+00 +0.0000000000e+00 +2.0441348762e+03 2.0441348762e+03 5.0400000000e-03 0.0000e+00 -1.0000e+00
       21 -1    0    0  502  503 +0.0000000000e+00 +0.0000000000e+00 -2.6993417017e+02 2.6993417017e+02 0.0000000000e+00 0.0000e+00 -1.0000e+00
 -8000001  2    1    2    0  503 -6.8226510037e+00 -6.1913208247e+00 +1.2275497253e+03 1.3663686182e+03 5.9999999299e+02 0.0000e+00 0.0000e+00
        2  1    1    2  501    0 +8.7294494494e+00 -8.1481092275e+00 +7.4683983190e+02 7.4693529137e+02 2.5500000000e-03 0.0000e+00 -1.0000e+00
        5  1    1    2  502    0 -1.9067984457e+00 +1.4339430052e+01 -2.0018885118e+02 2.0076513684e+02 4.6700000000e+00 0.0000e+00 -1.0000e+00
       -6  2    3    3    0  503 -1.0638472666e+02 -7.6494188382e+01 +1.1863714238e+02 2.4704385898e+02 1.7258860271e+02 0.0000e+00 0.0000e+00
       -5  1    6    6    0  503 +3.7064822728e+01 -8.5177134688e+00 +1.3931900055e+01 4.0770813904e+01 4.6700000000e+00 0.0000e+00 1.0000e+00
      -24  2    6    6    0    0 -1.4344954939e+02 -6.7976474913e+01 +1.0470524232e+02 2.0627304507e+02 7.9917501168e+01 0.0000e+00 0.0000e+00
        3  1    8    8  504    0 -3.6832701372e+01 -4.0868245754e+01 +7.3701151110e+01 9.1971361180e+01 1.0100000000e-01 0.0000e+00 -1.0000e+00
       -4  1    8    8    0  504 -1.0661684802e+02 -2.7108229160e+01 +3.1004091211e+01 1.1430168389e+02 1.2700000000e+00 0.0000e+00 1.0000e+00
       23  2    3    3    0    0 +9.9562075656e+01 +7.0302867558e+01 +1.1089125829e+03 1.1193247592e+03 9.1354801953e+01 0.0000e+00 0.0000e+00
       16  1   11   11    0    0 +7.8067266736e+01 +8.6764852794e+01 +7.1321955155e+02 7.2270655631e+02 0.0000000000e+00 0.0000e+00 -1.0000e+00
      -16  1   11   11    0    0 +2.1494808920e+01 -1.6461985237e+01 +3.9569303138e+02 3.9661820287e+02 0.0000000000e+00 0.0000e+00 1.0000e+00
<mgrwt>
<rscale>  1 0.33771319e+02</rscale>
<asrwt>0</asrwt>
<pdfrwt beam="1">  1       21 0.41528335e-01 0.95508917e+02</pdfrwt>
<pdfrwt beam="2">  1        1 0.31448228e+00 0.11941314e+02</pdfrwt>
<totfact> 0.34471297e+02</totfact>
</mgrwt>
<rwgt>
<wgt id='1001'> +3.9556008E-01 </wgt>
<wgt id='1002'> +1.6108697E-01 </wgt>
<wgt id='1003'> +1.6099641E-01 </wgt>
<wgt id='1004'> +1.9623711E-01 </wgt>
<wgt id='1005'> +1.1307737E-01 </wgt>
<wgt id='1006'> +3.4965679E-01 </wgt>
<wgt id='1007'> +1.4796936E-01 </wgt>
<wgt id='1008'> +1.4788946E-01 </wgt>
<wgt id='1009'> +1.7876856E-01 </wgt>
<wgt id='1010'> +1.0520157E-01 </wgt>
<wgt id='1011'> +4.5601118E-01 </wgt>
<wgt id='1012'> +1.7683257E-01 </wgt>
<wgt id='1013'> +1.7672833E-01 </wgt>
<wgt id='1014'> +2.1761450E-01 </wgt>
<wgt id='1015'> +1.2225865E-01 </wgt>
<wgt id='1016'> +3.4176464E-01 </wgt>
<wgt id='1017'> +1.4593289E-01 </wgt>
<wgt id='1018'> +1.4585345E-01 </wgt>
<wgt id='1019'> +1.7672833E-01 </wgt>
<wgt id='1020'> +1.0349693E-01 </wgt>
<wgt id='1021'> +3.0210411E-01 </wgt>
<wgt id='1022'> +1.3404931E-01 </wgt>
<wgt id='1023'> +1.3397931E-01 </wgt>
<wgt id='1024'> +1.6099641E-01 </wgt>
<wgt id='1025'> +9.6288404E-02 </wgt>
<wgt id='1026'> +3.9399450E-01 </wgt>
<wgt id='1027'> +1.6019724E-01 </wgt>
<wgt id='1028'> +1.6010567E-01 </wgt>
<wgt id='1029'> +1.9598050E-01 </wgt>
<wgt id='1030'> +1.1190034E-01 </wgt>
<wgt id='1031'> +4.6635289E-01 </wgt>
<wgt id='1032'> +1.7887239E-01 </wgt>
<wgt id='1033'> +1.7876856E-01 </wgt>
<wgt id='1034'> +2.1930585E-01 </wgt>
<wgt id='1035'> +1.2416166E-01 </wgt>
<wgt id='1036'> +4.1223435E-01 </wgt>
<wgt id='1037'> +1.6430648E-01 </wgt>
<wgt id='1038'> +1.6421476E-01 </wgt>
<wgt id='1039'> +1.9978378E-01 </wgt>
<wgt id='1040'> +1.1551384E-01 </wgt>
<wgt id='1041'> +5.3762282E-01 </wgt>
<wgt id='1042'> +1.9635644E-01 </wgt>
<wgt id='1043'> +1.9623711E-01 </wgt>
<wgt id='1044'> +2.4319627E-01 </wgt>
<wgt id='1045'> +1.3424293E-01 </wgt>
<wgt id='1046'> +3.9556008E-01 </wgt>
<wgt id='1047'> +3.9556008E-01 </wgt>
<wgt id='1048'> +3.9556008E-01 </wgt>
<wgt id='1049'> +3.9587780E-01 </wgt>
<wgt id='1050'> +3.9279576E-01 </wgt>
<wgt id='1051'> +3.9846300E-01 </wgt>
<wgt id='1052'> +3.9321909E-01 </wgt>
<wgt id='1053'> +3.9969071E-01 </wgt>
<wgt id='1054'> +3.9359243E-01 </wgt>
<wgt id='1055'> +3.9339692E-01 </wgt>
<wgt id='1056'> +3.9672378E-01 </wgt>
<wgt id='1057'> +3.9544166E-01 </wgt>
<wgt id='1058'> +3.9871056E-01 </wgt>
<wgt id='1059'> +3.9438089E-01 </wgt>
<wgt id='1060'> +3.9720395E-01 </wgt>
<wgt id='1061'> +3.9662175E-01 </wgt>
<wgt id='1062'> +3.9471629E-01 </wgt>
<wgt id='1063'> +3.9589792E-01 </wgt>
<wgt id='1064'> +3.9632163E-01 </wgt>
<wgt id='1065'> +3.9470074E-01 </wgt>
<wgt id='1066'> +3.9601096E-01 </wgt>
<wgt id='1067'> +3.9650354E-01 </wgt>
<wgt id='1068'> +3.9581064E-01 </wgt>
<wgt id='1069'> +3.9547507E-01 </wgt>
<wgt id='1070'> +3.9591167E-01 </wgt>
<wgt id='1071'> +3.9349155E-01 </wgt>
<wgt id='1072'> +3.9790646E-01 </wgt>
<wgt id='1073'> +3.9237672E-01 </wgt>
<wgt id='1074'> +3.9618457E-01 </wgt>
<wgt id='1075'> +3.9628231E-01 </wgt>
<wgt id='1076'> +4.0043534E-01 </wgt>
<wgt id='1077'> +3.9726768E-01 </wgt>
<wgt id='1078'> +3.9333139E-01 </wgt>
<wgt id='1079'> +3.9707933E-01 </wgt>
<wgt id='1080'> +3.9643606E-01 </wgt>
<wgt id='1081'> +3.9537025E-01 </wgt>
<wgt id='1082'> +3.9602773E-01 </wgt>
<wgt id='1083'> +3.9705285E-01 </wgt>
<wgt id='1084'> +3.9175369E-01 </wgt>
<wgt id='1085'> +3.9484668E-01 </wgt>
<wgt id='1086'> +3.9326141E-01 </wgt>
<wgt id='1087'> +3.9675063E-01 </wgt>
<wgt id='1088'> +3.9682405E-01 </wgt>
<wgt id='1089'> +3.9643996E-01 </wgt>
<wgt id='1090'> +3.9196414E-01 </wgt>
<wgt id='1091'> +3.9501927E-01 </wgt>
<wgt id='1092'> +3.9390025E-01 </wgt>
<wgt id='1093'> +3.9392579E-01 </wgt>
<wgt id='1094'> +3.9605243E-01 </wgt>
<wgt id='1095'> +3.9620548E-01 </wgt>
<wgt id='1096'> +3.9528777E-01 </wgt>
<wgt id='1097'> +3.9990082E-01 </wgt>
<wgt id='1098'> +3.9594053E-01 </wgt>
<wgt id='1099'> +3.9423894E-01 </wgt>
<wgt id='1100'> +3.9551555E-01 </wgt>
<wgt id='1101'> +3.9602211E-01 </wgt>
<wgt id='1102'> +3.9567218E-01 </wgt>
<wgt id='1103'> +3.9391732E-01 </wgt>
<wgt id='1104'> +3.9525104E-01 </wgt>
<wgt id='1105'> +3.9391936E-01 </wgt>
<wgt id='1106'> +3.9731509E-01 </wgt>
<wgt id='1107'> +3.9629055E-01 </wgt>
<wgt id='1108'> +3.9439199E-01 </wgt>
<wgt id='1109'> +3.9614519E-01 </wgt>
<wgt id='1110'> +3.9578157E-01 </wgt>
<wgt id='1111'> +3.9423160E-01 </wgt>
<wgt id='1112'> +3.9531314E-01 </wgt>
<wgt id='1113'> +3.9586231E-01 </wgt>
<wgt id='1114'> +3.9628117E-01 </wgt>
<wgt id='1115'> +3.9576084E-01 </wgt>
<wgt id='1116'> +3.9584148E-01 </wgt>
<wgt id='1117'> +3.9461429E-01 </wgt>
<wgt id='1118'> +3.9452908E-01 </wgt>
<wgt id='1119'> +3.9521239E-01 </wgt>
<wgt id='1120'> +3.9546103E-01 </wgt>
<wgt id='1121'> +3.9719181E-01 </wgt>
<wgt id='1122'> +3.9730426E-01 </wgt>
<wgt id='1123'> +3.9491448E-01 </wgt>
<wgt id='1124'> +3.9561073E-01 </wgt>
<wgt id='1125'> +3.9570364E-01 </wgt>
<wgt id='1126'> +3.9630383E-01 </wgt>
<wgt id='1127'> +3.9614534E-01 </wgt>
<wgt id='1128'> +3.9521499E-01 </wgt>
<wgt id='1129'> +3.9626984E-01 </wgt>
<wgt id='1130'> +3.9574514E-01 </wgt>
<wgt id='1131'> +3.9624905E-01 </wgt>
<wgt id='1132'> +3.9531797E-01 </wgt>
<wgt id='1133'> +3.9507056E-01 </wgt>
<wgt id='1134'> +3.9539125E-01 </wgt>
<wgt id='1135'> +3.9550841E-01 </wgt>
<wgt id='1136'> +3.9617009E-01 </wgt>
<wgt id='1137'> +3.9482189E-01 </wgt>
<wgt id='1138'> +3.9625715E-01 </wgt>
<wgt id='1139'> +3.9549880E-01 </wgt>
<wgt id='1140'> +3.9517654E-01 </wgt>
<wgt id='1141'> +3.9580100E-01 </wgt>
<wgt id='1142'> +3.9596445E-01 </wgt>
<wgt id='1143'> +3.9518374E-01 </wgt>
<wgt id='1144'> +3.9588459E-01 </wgt>
<wgt id='1145'> +3.9633468E-01 </wgt>
<wgt id='1146'> +3.9573896E-01 </wgt>
<wgt id='1147'> +3.9615227E-01 </wgt>
<wgt id='1148'> +3.9556008E-01 </wgt>
<wgt id='1149'> +3.8459225E-01 </wgt>
<wgt id='1150'> +3.9801979E-01 </wgt>
<wgt id='1151'> +3.8766584E-01 </wgt>
<wgt id='1152'> +3.8099967E-01 </wgt>
<wgt id='1153'> +4.0259771E-01 </wgt>
<wgt id='1154'> +3.9906314E-01 </wgt>
<wgt id='1155'> +3.8711370E-01 </wgt>
<wgt id='1156'> +3.8582768E-01 </wgt>
<wgt id='1157'> +3.8190378E-01 </wgt>
<wgt id='1158'> +3.9464423E-01 </wgt>
<wgt id='1159'> +3.6915688E-01 </wgt>
<wgt id='1160'> +3.7485607E-01 </wgt>
<wgt id='1161'> +4.1363308E-01 </wgt>
<wgt id='1162'> +3.6540554E-01 </wgt>
<wgt id='1163'> +3.8944506E-01 </wgt>
<wgt id='1164'> +3.7962843E-01 </wgt>
<wgt id='1165'> +3.9666847E-01 </wgt>
<wgt id='1166'> +3.8268751E-01 </wgt>
<wgt id='1167'> +3.9429984E-01 </wgt>
<wgt id='1168'> +3.9572149E-01 </wgt>
<wgt id='1169'> +3.8341321E-01 </wgt>
<wgt id='1170'> +3.9256254E-01 </wgt>
<wgt id='1171'> +3.7816461E-01 </wgt>
<wgt id='1172'> +4.0584180E-01 </wgt>
<wgt id='1173'> +3.9210330E-01 </wgt>
<wgt id='1174'> +4.1930815E-01 </wgt>
<wgt id='1175'> +3.9428254E-01 </wgt>
<wgt id='1176'> +3.6946709E-01 </wgt>
<wgt id='1177'> +3.9109181E-01 </wgt>
<wgt id='1178'> +3.9061131E-01 </wgt>
<wgt id='1179'> +3.5361698E-01 </wgt>
<wgt id='1180'> +3.5711235E-01 </wgt>
<wgt id='1181'> +3.8430966E-01 </wgt>
<wgt id='1182'> +3.8909667E-01 </wgt>
<wgt id='1183'> +3.7584516E-01 </wgt>
<wgt id='1184'> +3.6147688E-01 </wgt>
<wgt id='1185'> +3.7421961E-01 </wgt>
<wgt id='1186'> +3.8767071E-01 </wgt>
<wgt id='1187'> +3.6500982E-01 </wgt>
<wgt id='1188'> +3.5221446E-01 </wgt>
<wgt id='1189'> +3.6680135E-01 </wgt>
<wgt id='1190'> +3.9308951E-01 </wgt>
<wgt id='1191'> +3.9907770E-01 </wgt>
<wgt id='1192'> +3.8819812E-01 </wgt>
<wgt id='1193'> +3.8129403E-01 </wgt>
<wgt id='1194'> +3.8836436E-01 </wgt>
<wgt id='1195'> +3.7937874E-01 </wgt>
<wgt id='1196'> +3.8203489E-01 </wgt>
<wgt id='1197'> +3.8520090E-01 </wgt>
<wgt id='1198'> +3.8546150E-01 </wgt>
<wgt id='1199'> +3.8928024E-01 </wgt>
<wgt id='1200'> +3.9499620E-01 </wgt>
<wgt id='1201'> +4.0908180E-01 </wgt>
<wgt id='1202'> +3.7263408E-01 </wgt>
<wgt id='1203'> +4.0416169E-01 </wgt>
<wgt id='1204'> +3.5662720E-01 </wgt>
<wgt id='1205'> +3.9107637E-01 </wgt>
<wgt id='1206'> +3.9475033E-01 </wgt>
<wgt id='1207'> +3.7251778E-01 </wgt>
<wgt id='1208'> +3.9099392E-01 </wgt>
<wgt id='1209'> +4.0803574E-01 </wgt>
<wgt id='1210'> +3.7349881E-01 </wgt>
<wgt id='1211'> +3.9763467E-01 </wgt>
<wgt id='1212'> +3.7364982E-01 </wgt>
<wgt id='1213'> +3.7456110E-01 </wgt>
<wgt id='1214'> +3.9725402E-01 </wgt>
<wgt id='1215'> +3.9255811E-01 </wgt>
<wgt id='1216'> +4.0035813E-01 </wgt>
<wgt id='1217'> +3.9257014E-01 </wgt>
<wgt id='1218'> +3.8670514E-01 </wgt>
<wgt id='1219'> +3.6476439E-01 </wgt>
<wgt id='1220'> +3.8591174E-01 </wgt>
<wgt id='1221'> +3.8591348E-01 </wgt>
<wgt id='1222'> +3.9623789E-01 </wgt>
<wgt id='1223'> +3.9195616E-01 </wgt>
<wgt id='1224'> +3.7480662E-01 </wgt>
<wgt id='1225'> +3.7553965E-01 </wgt>
<wgt id='1226'> +3.5799307E-01 </wgt>
<wgt id='1227'> +3.9834554E-01 </wgt>
<wgt id='1228'> +3.9843577E-01 </wgt>
<wgt id='1229'> +3.3748958E-01 </wgt>
<wgt id='1230'> +3.8006238E-01 </wgt>
<wgt id='1231'> +3.9666847E-01 </wgt>
<wgt id='1232'> +3.5881762E-01 </wgt>
<wgt id='1233'> +3.9103473E-01 </wgt>
<wgt id='1234'> +3.8689687E-01 </wgt>
<wgt id='1235'> +3.7246760E-01 </wgt>
<wgt id='1236'> +3.8686000E-01 </wgt>
<wgt id='1237'> +3.5728477E-01 </wgt>
<wgt id='1238'> +3.7659809E-01 </wgt>
<wgt id='1239'> +3.7391663E-01 </wgt>
<wgt id='1240'> +3.7983466E-01 </wgt>
<wgt id='1241'> +3.8232454E-01 </wgt>
<wgt id='1242'> +3.9514596E-01 </wgt>
<wgt id='1243'> +4.0052513E-01 </wgt>
<wgt id='1244'> +3.9393529E-01 </wgt>
<wgt id='1245'> +3.7802446E-01 </wgt>
<wgt id='1246'> +3.9451521E-01 </wgt>
<wgt id='1247'> +3.7267774E-01 </wgt>
<wgt id='1248'> +4.0281600E-01 </wgt>
<wgt id='1249'> +3.8986276E-01 </wgt>
<wgt id='1250'> +3.7388212E-01 </wgt>
<wgt id='1251'> +3.6885011E-01 </wgt>
<wgt id='1252'> +3.7322618E-01 </wgt>
<wgt id='1253'> +3.7772445E-01 </wgt>
<wgt id='1254'> +3.3692620E-01 </wgt>
<wgt id='1255'> +4.1392939E-01 </wgt>
<wgt id='1256'> +4.1376481E-01 </wgt>
<wgt id='1257'> +4.1402766E-01 </wgt>
<wgt id='1258'> +4.1478026E-01 </wgt>
<wgt id='1259'> +4.1348457E-01 </wgt>
<wgt id='1260'> +4.1243414E-01 </wgt>
<wgt id='1261'> +4.1593735E-01 </wgt>
<wgt id='1262'> +4.1323591E-01 </wgt>
<wgt id='1263'> +4.1434086E-01 </wgt>
<wgt id='1264'> +4.2310164E-01 </wgt>
<wgt id='1265'> +4.0766871E-01 </wgt>
<wgt id='1266'> +4.1358750E-01 </wgt>
<wgt id='1267'> +4.1427597E-01 </wgt>
<wgt id='1268'> +4.1238262E-01 </wgt>
<wgt id='1269'> +4.1532908E-01 </wgt>
<wgt id='1270'> +4.1449895E-01 </wgt>
<wgt id='1271'> +4.1262252E-01 </wgt>
<wgt id='1272'> +4.0917745E-01 </wgt>
<wgt id='1273'> +4.1752973E-01 </wgt>
<wgt id='1274'> +4.1413070E-01 </wgt>
<wgt id='1275'> +4.1358383E-01 </wgt>
<wgt id='1276'> +4.0869075E-01 </wgt>
<wgt id='1277'> +4.1952862E-01 </wgt>
<wgt id='1278'> +4.1078401E-01 </wgt>
<wgt id='1279'> +4.1614099E-01 </wgt>
<wgt id='1280'> +4.1358071E-01 </wgt>
<wgt id='1281'> +4.1475006E-01 </wgt>
<wgt id='1282'> +4.1979669E-01 </wgt>
<wgt id='1283'> +4.0822088E-01 </wgt>
<wgt id='1284'> +4.1574766E-01 </wgt>
<wgt id='1285'> +4.1213416E-01 </wgt>
<wgt id='1286'> +4.0677002E-01 </wgt>
<wgt id='1287'> +4.1445567E-01 </wgt>
<wgt id='1288'> +4.1430845E-01 </wgt>
<wgt id='1289'> +4.1358718E-01 </wgt>
<wgt id='1290'> +4.1519823E-01 </wgt>
<wgt id='1291'> +4.1346698E-01 </wgt>
<wgt id='1292'> +4.1627659E-01 </wgt>
<wgt id='1293'> +4.1083058E-01 </wgt>
<wgt id='1294'> +4.1014668E-01 </wgt>
<wgt id='1295'> +4.1555998E-01 </wgt>
<wgt id='1296'> +3.8901993E-01 </wgt>
<wgt id='1297'> +3.8992482E-01 </wgt>
<wgt id='1298'> +3.8831249E-01 </wgt>
<wgt id='1299'> +3.8926067E-01 </wgt>
<wgt id='1300'> +3.8875233E-01 </wgt>
<wgt id='1301'> +3.8898270E-01 </wgt>
<wgt id='1302'> +3.8910613E-01 </wgt>
<wgt id='1303'> +3.8916266E-01 </wgt>
<wgt id='1304'> +3.8894688E-01 </wgt>
<wgt id='1305'> +3.8859095E-01 </wgt>
<wgt id='1306'> +3.8965344E-01 </wgt>
<wgt id='1307'> +3.8726066E-01 </wgt>
<wgt id='1308'> +3.9012231E-01 </wgt>
<wgt id='1309'> +3.8340983E-01 </wgt>
<wgt id='1310'> +3.9673886E-01 </wgt>
<wgt id='1311'> +3.8678873E-01 </wgt>
<wgt id='1312'> +3.8982714E-01 </wgt>
<wgt id='1313'> +3.9056105E-01 </wgt>
<wgt id='1314'> +3.8698282E-01 </wgt>
<wgt id='1315'> +3.9321894E-01 </wgt>
<wgt id='1316'> +3.8492049E-01 </wgt>
<wgt id='1317'> +3.8710817E-01 </wgt>
<wgt id='1318'> +3.9257882E-01 </wgt>
<wgt id='1319'> +3.9290061E-01 </wgt>
<wgt id='1320'> +3.8629228E-01 </wgt>
<wgt id='1321'> +3.8766110E-01 </wgt>
<wgt id='1322'> +3.8951973E-01 </wgt>
<wgt id='1323'> +3.9085841E-01 </wgt>
<wgt id='1324'> +3.8532919E-01 </wgt>
<wgt id='1325'> +3.8906912E-01 </wgt>
<wgt id='1326'> +3.8891557E-01 </wgt>
<wgt id='1327'> +3.8846455E-01 </wgt>
<wgt id='1328'> +3.8915227E-01 </wgt>
<wgt id='1329'> +3.8879095E-01 </wgt>
<wgt id='1330'> +3.8903982E-01 </wgt>
<wgt id='1331'> +3.8551209E-01 </wgt>
<wgt id='1332'> +3.9085916E-01 </wgt>
<wgt id='1333'> +3.9204660E-01 </wgt>
<wgt id='1334'> +3.8520987E-01 </wgt>
<wgt id='1335'> +3.8880685E-01 </wgt>
<wgt id='1336'> +3.8902357E-01 </wgt>
<wgt id='1337'> +3.8901993E-01 </wgt>
<wgt id='1338'> +3.8874377E-01 </wgt>
<wgt id='1339'> +3.8886359E-01 </wgt>
<wgt id='1340'> +3.8901401E-01 </wgt>
<wgt id='1341'> +3.8913278E-01 </wgt>
<wgt id='1342'> +3.8924022E-01 </wgt>
<wgt id='1343'> +3.8930502E-01 </wgt>
<wgt id='1344'> +3.8245903E-01 </wgt>
<wgt id='1345'> +3.8344426E-01 </wgt>
<wgt id='1346'> +3.8148840E-01 </wgt>
<wgt id='1347'> +3.8179258E-01 </wgt>
<wgt id='1348'> +3.8291125E-01 </wgt>
<wgt id='1349'> +3.8227773E-01 </wgt>
<wgt id='1350'> +3.8256968E-01 </wgt>
<wgt id='1351'> +3.8232393E-01 </wgt>
<wgt id='1352'> +3.8266095E-01 </wgt>
<wgt id='1353'> +3.8208161E-01 </wgt>
<wgt id='1354'> +3.8269226E-01 </wgt>
<wgt id='1355'> +3.8997136E-01 </wgt>
<wgt id='1356'> +3.7663007E-01 </wgt>
<wgt id='1357'> +3.8468903E-01 </wgt>
<wgt id='1358'> +3.8111823E-01 </wgt>
<wgt id='1359'> +3.8319317E-01 </wgt>
<wgt id='1360'> +3.8065492E-01 </wgt>
<wgt id='1361'> +3.8797972E-01 </wgt>
<wgt id='1362'> +3.7841513E-01 </wgt>
<wgt id='1363'> +3.7915987E-01 </wgt>
<wgt id='1364'> +3.8602864E-01 </wgt>
<wgt id='1365'> +3.8506121E-01 </wgt>
<wgt id='1366'> +3.8116107E-01 </wgt>
<wgt id='1367'> +3.8021832E-01 </wgt>
<wgt id='1368'> +3.8323971E-01 </wgt>
<wgt id='1369'> +3.8007529E-01 </wgt>
<wgt id='1370'> +3.8424011E-01 </wgt>
<wgt id='1371'> +3.8077037E-01 </wgt>
<wgt id='1372'> +3.8208167E-01 </wgt>
<wgt id='1373'> +3.8555528E-01 </wgt>
<wgt id='1374'> +3.8105556E-01 </wgt>
<wgt id='1375'> +3.8245504E-01 </wgt>
<wgt id='1376'> +3.8233735E-01 </wgt>
<wgt id='1377'> +3.8269011E-01 </wgt>
<wgt id='1378'> +3.8197233E-01 </wgt>
<wgt id='1379'> +3.8422692E-01 </wgt>
<wgt id='1380'> +3.8016446E-01 </wgt>
<wgt id='1381'> +3.8038957E-01 </wgt>
<wgt id='1382'> +3.8254888E-01 </wgt>
<wgt id='1383'> +3.8231545E-01 </wgt>
<wgt id='1384'> +3.8170387E-01 </wgt>
<wgt id='1385'> +3.8245903E-01 </wgt>
<wgt id='1386'> +3.8200638E-01 </wgt>
<wgt id='1387'> +3.8212364E-01 </wgt>
<wgt id='1388'> +3.8230534E-01 </wgt>
<wgt id='1389'> +3.8248836E-01 </wgt>
<wgt id='1390'> +3.8257786E-01 </wgt>
<wgt id='1391'> +3.8266372E-01 </wgt>
<wgt id='1392'> +4.2932597E-01 </wgt>
<wgt id='1393'> +4.2942639E-01 </wgt>
<wgt id='1394'> +4.2923525E-01 </wgt>
<wgt id='1395'> +4.2964576E-01 </wgt>
<wgt id='1396'> +4.2913430E-01 </wgt>
<wgt id='1397'> +4.3080424E-01 </wgt>
<wgt id='1398'> +4.2793933E-01 </wgt>
<wgt id='1399'> +4.2846613E-01 </wgt>
<wgt id='1400'> +4.3044467E-01 </wgt>
<wgt id='1401'> +4.3047982E-01 </wgt>
<wgt id='1402'> +4.2793863E-01 </wgt>
<wgt id='1403'> +4.2771798E-01 </wgt>
<wgt id='1404'> +4.3259697E-01 </wgt>
<wgt id='1405'> +4.3133614E-01 </wgt>
<wgt id='1406'> +4.2659238E-01 </wgt>
<wgt id='1407'> +4.3625077E-01 </wgt>
<wgt id='1408'> +4.2459354E-01 </wgt>
<wgt id='1409'> +4.3142808E-01 </wgt>
<wgt id='1410'> +4.2702890E-01 </wgt>
<wgt id='1411'> +4.2719295E-01 </wgt>
<wgt id='1412'> +4.3100240E-01 </wgt>
<wgt id='1413'> +4.2647172E-01 </wgt>
<wgt id='1414'> +4.3227435E-01 </wgt>
<wgt id='1415'> +4.2948834E-01 </wgt>
<wgt id='1416'> +4.2909420E-01 </wgt>
<wgt id='1417'> +4.2943125E-01 </wgt>
<wgt id='1418'> +4.2922031E-01 </wgt>
<wgt id='1419'> +4.2362407E-01 </wgt>
<wgt id='1420'> +4.2698637E-01 </wgt>
<wgt id='1421'> +4.3161917E-01 </wgt>
<wgt id='1422'> +4.2649921E-01 </wgt>
<wgt id='1423'> +4.3331252E-01 </wgt>
<wgt id='1424'> +4.2642448E-01 </wgt>
<wgt id='1425'> +4.2865858E-01 </wgt>
<wgt id='1426'> +4.3031681E-01 </wgt>
<wgt id='1427'> +4.2938151E-01 </wgt>
<wgt id='1428'> +4.2939269E-01 </wgt>
<wgt id='1429'> +4.2926967E-01 </wgt>
<wgt id='1430'> +4.3006066E-01 </wgt>
<wgt id='1431'> +4.2789127E-01 </wgt>
<wgt id='1432'> +4.3047933E-01 </wgt>
<wgt id='1433'> +4.2542775E-01 </wgt>
<wgt id='1434'> +4.3383423E-01 </wgt>
<wgt id='1435'> +4.2860724E-01 </wgt>
<wgt id='1436'> +4.3064443E-01 </wgt>
<wgt id='1437'> +4.2692693E-01 </wgt>
<wgt id='1438'> +4.3559937E-01 </wgt>
<wgt id='1439'> +4.3206635E-01 </wgt>
<wgt id='1440'> +4.2328410E-01 </wgt>
<wgt id='1441'> +4.3184052E-01 </wgt>
<wgt id='1442'> +4.2617616E-01 </wgt>
<wgt id='1443'> +4.2607294E-01 </wgt>
<wgt id='1444'> +4.2617651E-01 </wgt>
<wgt id='1445'> +4.2596006E-01 </wgt>
<wgt id='1446'> +4.2639506E-01 </wgt>
<wgt id='1447'> +4.2587402E-01 </wgt>
<wgt id='1448'> +4.2756828E-01 </wgt>
<wgt id='1449'> +4.2470311E-01 </wgt>
<wgt id='1450'> +4.2506769E-01 </wgt>
<wgt id='1451'> +4.2720367E-01 </wgt>
<wgt id='1452'> +4.2744040E-01 </wgt>
<wgt id='1453'> +4.2475809E-01 </wgt>
<wgt id='1454'> +4.2483067E-01 </wgt>
<wgt id='1455'> +4.2879020E-01 </wgt>
<wgt id='1456'> +4.2895798E-01 </wgt>
<wgt id='1457'> +4.2096653E-01 </wgt>
<wgt id='1458'> +4.3296408E-01 </wgt>
<wgt id='1459'> +4.2221364E-01 </wgt>
<wgt id='1460'> +4.2777719E-01 </wgt>
<wgt id='1461'> +4.2408252E-01 </wgt>
<wgt id='1462'> +4.2347985E-01 </wgt>
<wgt id='1463'> +4.2833300E-01 </wgt>
<wgt id='1464'> +4.2363613E-01 </wgt>
<wgt id='1465'> +4.2915743E-01 </wgt>
<wgt id='1466'> +4.2622465E-01 </wgt>
<wgt id='1467'> +4.2585999E-01 </wgt>
<wgt id='1468'> +4.2572797E-01 </wgt>
<wgt id='1469'> +4.2649400E-01 </wgt>
<wgt id='1470'> +4.2032998E-01 </wgt>
<wgt id='1471'> +4.2485295E-01 </wgt>
<wgt id='1472'> +4.2771964E-01 </wgt>
<wgt id='1473'> +4.2388340E-01 </wgt>
<wgt id='1474'> +4.2873669E-01 </wgt>
<wgt id='1475'> +4.2321744E-01 </wgt>
<wgt id='1476'> +4.2459730E-01 </wgt>
<wgt id='1477'> +4.2766139E-01 </wgt>
<wgt id='1478'> +4.2630472E-01 </wgt>
<wgt id='1479'> +4.2575057E-01 </wgt>
<wgt id='1480'> +4.2489961E-01 </wgt>
<wgt id='1481'> +4.2689326E-01 </wgt>
<wgt id='1482'> +4.2465569E-01 </wgt>
<wgt id='1483'> +4.2739816E-01 </wgt>
<wgt id='1484'> +4.2241547E-01 </wgt>
<wgt id='1485'> +4.3014996E-01 </wgt>
<wgt id='1486'> +4.2678760E-01 </wgt>
<wgt id='1487'> +4.2630265E-01 </wgt>
<wgt id='1488'> +4.2353580E-01 </wgt>
<wgt id='1489'> +4.3239449E-01 </wgt>
<wgt id='1490'> +4.2834617E-01 </wgt>
<wgt id='1491'> +4.2032660E-01 </wgt>
<wgt id='1492'> +4.2923822E-01 </wgt>
<wgt id='1493'> +4.2206944E-01 </wgt>
<wgt id='1494'> +4.1412854E-01 </wgt>
<wgt id='1495'> +4.0947143E-01 </wgt>
<wgt id='1496'> +4.1134282E-01 </wgt>
<wgt id='1497'> +4.1268715E-01 </wgt>
<wgt id='1498'> +4.1501664E-01 </wgt>
<wgt id='1499'> +4.1397491E-01 </wgt>
<wgt id='1500'> +4.1326795E-01 </wgt>
<wgt id='1501'> +4.1352911E-01 </wgt>
<wgt id='1502'> +4.1391495E-01 </wgt>
<wgt id='1503'> +4.1405230E-01 </wgt>
<wgt id='1504'> +4.1403063E-01 </wgt>
<wgt id='1505'> +4.1398694E-01 </wgt>
<wgt id='1506'> +4.1395094E-01 </wgt>
<wgt id='1507'> +4.1386974E-01 </wgt>
<wgt id='1508'> +4.1397491E-01 </wgt>
<wgt id='1509'> +4.1417814E-01 </wgt>
<wgt id='1510'> +4.1405905E-01 </wgt>
<wgt id='1511'> +4.1393699E-01 </wgt>
<wgt id='1512'> +4.1379123E-01 </wgt>
<wgt id='1513'> +4.0500129E-01 </wgt>
<wgt id='1514'> +4.0487877E-01 </wgt>
<wgt id='1515'> +4.0513789E-01 </wgt>
<wgt id='1516'> +4.0575774E-01 </wgt>
<wgt id='1517'> +4.0424790E-01 </wgt>
<wgt id='1518'> +4.0580198E-01 </wgt>
<wgt id='1519'> +4.0468206E-01 </wgt>
<wgt id='1520'> +4.0547588E-01 </wgt>
<wgt id='1521'> +4.0452263E-01 </wgt>
<wgt id='1522'> +4.0689630E-01 </wgt>
<wgt id='1523'> +4.0317152E-01 </wgt>
<wgt id='1524'> +4.0843815E-01 </wgt>
<wgt id='1525'> +4.0350316E-01 </wgt>
<wgt id='1526'> +4.0362266E-01 </wgt>
<wgt id='1527'> +4.0667577E-01 </wgt>
<wgt id='1528'> +4.1152727E-01 </wgt>
<wgt id='1529'> +3.9795196E-01 </wgt>
<wgt id='1530'> +4.0160696E-01 </wgt>
<wgt id='1531'> +4.0690804E-01 </wgt>
<wgt id='1532'> +4.0687213E-01 </wgt>
<wgt id='1533'> +4.0244131E-01 </wgt>
<wgt id='1534'> +4.0503365E-01 </wgt>
<wgt id='1535'> +4.0495068E-01 </wgt>
<wgt id='1536'> +4.0459239E-01 </wgt>
<wgt id='1537'> +4.0536963E-01 </wgt>
<wgt id='1538'> +4.0469147E-01 </wgt>
<wgt id='1539'> +4.0573156E-01 </wgt>
<wgt id='1540'> +4.0131166E-01 </wgt>
<wgt id='1541'> +4.0135917E-01 </wgt>
<wgt id='1542'> +4.0310553E-01 </wgt>
<wgt id='1543'> +4.1014289E-01 </wgt>
<wgt id='1544'> +4.0676717E-01 </wgt>
<wgt id='1545'> +4.0060979E-01 </wgt>
<wgt id='1546'> +4.0472135E-01 </wgt>
<wgt id='1547'> +4.0522386E-01 </wgt>
<wgt id='1548'> +4.0535457E-01 </wgt>
<wgt id='1549'> +4.0461385E-01 </wgt>
<wgt id='1550'> +4.0493390E-01 </wgt>
<wgt id='1551'> +4.0452325E-01 </wgt>
<wgt id='1552'> +4.0347715E-01 </wgt>
<wgt id='1553'> +4.0586772E-01 </wgt>
<wgt id='1554'> +4.0728890E-01 </wgt>
<wgt id='1555'> +3.9987609E-01 </wgt>
<wgt id='1556'> +4.0345811E-01 </wgt>
<wgt id='1557'> +4.0644418E-01 </wgt>
<wgt id='1558'> +4.0059680E-01 </wgt>
<wgt id='1559'> +4.0801594E-01 </wgt>
<wgt id='1560'> +4.1139644E-01 </wgt>
<wgt id='1561'> +4.0223814E-01 </wgt>
<wgt id='1562'> +4.0228226E-01 </wgt>
<wgt id='1563'> +4.0671442E-01 </wgt>
<wgt id='1564'> +4.0500129E-01 </wgt>
<wgt id='1565'> +4.0384965E-01 </wgt>
<wgt id='1566'> +4.0456084E-01 </wgt>
<wgt id='1567'> +4.0437139E-01 </wgt>
<wgt id='1568'> +4.0377163E-01 </wgt>
<wgt id='1569'> +4.0400998E-01 </wgt>
<wgt id='1570'> +4.0416842E-01 </wgt>
<wgt id='1571'> +4.0425405E-01 </wgt>
<wgt id='1572'> +4.0432523E-01 </wgt>
<wgt id='1573'> +4.0440424E-01 </wgt>
<wgt id='1574'> +4.0402813E-01 </wgt>
<wgt id='1575'> +4.0403177E-01 </wgt>
<wgt id='1576'> +4.0437139E-01 </wgt>
<wgt id='1577'> +4.0463820E-01 </wgt>
<wgt id='1578'> +4.0453248E-01 </wgt>
<wgt id='1579'> +4.0432613E-01 </wgt>
<wgt id='1580'> +4.0426479E-01 </wgt>
<wgt id='1581'> +3.8994008E-01 </wgt>
<wgt id='1582'> +3.9013801E-01 </wgt>
<wgt id='1583'> +3.9451670E-01 </wgt>
<wgt id='1584'> +3.8838195E-01 </wgt>
<wgt id='1585'> +3.8834016E-01 </wgt>
<wgt id='1586'> +3.9339946E-01 </wgt>
<wgt id='1587'> +3.9071179E-01 </wgt>
<wgt id='1588'> +3.8327000E-01 </wgt>
<wgt id='1589'> +3.9004802E-01 </wgt>
<wgt id='1590'> +3.7913727E-01 </wgt>
<wgt id='1591'> +3.8945175E-01 </wgt>
<wgt id='1592'> +3.9159205E-01 </wgt>
<wgt id='1593'> +3.9053766E-01 </wgt>
<wgt id='1594'> +3.8855819E-01 </wgt>
<wgt id='1595'> +3.9190275E-01 </wgt>
<wgt id='1596'> +3.9233857E-01 </wgt>
<wgt id='1597'> +3.8885814E-01 </wgt>
<wgt id='1598'> +3.8915081E-01 </wgt>
<wgt id='1599'> +3.9683917E-01 </wgt>
<wgt id='1600'> +3.9171388E-01 </wgt>
<wgt id='1601'> +3.8990947E-01 </wgt>
<wgt id='1602'> +3.8987828E-01 </wgt>
<wgt id='1603'> +3.8784947E-01 </wgt>
<wgt id='1604'> +3.9818900E-01 </wgt>
<wgt id='1605'> +3.9028882E-01 </wgt>
<wgt id='1606'> +3.9030003E-01 </wgt>
<wgt id='1607'> +3.9117921E-01 </wgt>
<wgt id='1608'> +3.8758482E-01 </wgt>
<wgt id='1609'> +3.9010985E-01 </wgt>
<wgt id='1610'> +3.8873558E-01 </wgt>
<wgt id='1611'> +3.9118387E-01 </wgt>
<wgt id='1612'> +3.9175221E-01 </wgt>
<wgt id='1613'> +3.9042626E-01 </wgt>
<wgt id='1614'> +3.9377469E-01 </wgt>
<wgt id='1615'> +3.9302398E-01 </wgt>
<wgt id='1616'> +3.9049948E-01 </wgt>
<wgt id='1617'> +3.9128260E-01 </wgt>
<wgt id='1618'> +3.9280310E-01 </wgt>
<wgt id='1619'> +3.9027702E-01 </wgt>
<wgt id='1620'> +3.9178270E-01 </wgt>
<wgt id='1621'> +3.9044900E-01 </wgt>
<wgt id='1622'> +3.9305751E-01 </wgt>
<wgt id='1623'> +3.9035368E-01 </wgt>
<wgt id='1624'> +3.9097284E-01 </wgt>
<wgt id='1625'> +3.9166629E-01 </wgt>
<wgt id='1626'> +3.9307807E-01 </wgt>
<wgt id='1627'> +3.9233458E-01 </wgt>
<wgt id='1628'> +3.9273888E-01 </wgt>
<wgt id='1629'> +3.9254992E-01 </wgt>
<wgt id='1630'> +3.9233636E-01 </wgt>
<wgt id='1631'> +3.9026127E-01 </wgt>
<wgt id='1632'> +3.9180370E-01 </wgt>
<wgt id='1633'> +3.9066831E-01 </wgt>
<wgt id='1634'> +3.9314526E-01 </wgt>
<wgt id='1635'> +3.9044880E-01 </wgt>
<wgt id='1636'> +3.9397781E-01 </wgt>
<wgt id='1637'> +3.9223427E-01 </wgt>
<wgt id='1638'> +3.9255951E-01 </wgt>
<wgt id='1639'> +3.9421599E-01 </wgt>
<wgt id='1640'> +3.9199018E-01 </wgt>
<wgt id='1641'> +3.8759219E-01 </wgt>
<wgt id='1642'> +3.9067149E-01 </wgt>
<wgt id='1643'> +3.9142030E-01 </wgt>
<wgt id='1644'> +3.8897196E-01 </wgt>
<wgt id='1645'> +3.9294165E-01 </wgt>
<wgt id='1646'> +3.9159109E-01 </wgt>
<wgt id='1647'> +3.9228154E-01 </wgt>
<wgt id='1648'> +3.9234451E-01 </wgt>
<wgt id='1649'> +3.9254832E-01 </wgt>
<wgt id='1650'> +3.8812633E-01 </wgt>
<wgt id='1651'> +3.9072076E-01 </wgt>
<wgt id='1652'> +3.9207825E-01 </wgt>
<wgt id='1653'> +3.9040313E-01 </wgt>
<wgt id='1654'> +3.9130657E-01 </wgt>
<wgt id='1655'> +3.9257582E-01 </wgt>
<wgt id='1656'> +3.9140953E-01 </wgt>
<wgt id='1657'> +3.9306604E-01 </wgt>
<wgt id='1658'> +3.9123178E-01 </wgt>
<wgt id='1659'> +3.9057470E-01 </wgt>
<wgt id='1660'> +3.9348030E-01 </wgt>
<wgt id='1661'> +3.9062582E-01 </wgt>
<wgt id='1662'> +3.9383874E-01 </wgt>
<wgt id='1663'> +3.9358678E-01 </wgt>
<wgt id='1664'> +3.9085284E-01 </wgt>
<wgt id='1665'> +3.9325040E-01 </wgt>
<wgt id='1666'> +3.9226430E-01 </wgt>
<wgt id='1667'> +3.9549295E-01 </wgt>
<wgt id='1668'> +3.9503392E-01 </wgt>
<wgt id='1669'> +3.9143664E-01 </wgt>
<wgt id='1670'> +3.9063837E-01 </wgt>
<wgt id='1671'> +3.9236848E-01 </wgt>
<wgt id='1672'> +3.9084023E-01 </wgt>
<wgt id='1673'> +3.9003334E-01 </wgt>
<wgt id='1674'> +3.9341029E-01 </wgt>
<wgt id='1675'> +3.9130532E-01 </wgt>
<wgt id='1676'> +3.9262043E-01 </wgt>
<wgt id='1677'> +3.9259248E-01 </wgt>
<wgt id='1678'> +3.8967907E-01 </wgt>
<wgt id='1679'> +3.9034887E-01 </wgt>
<wgt id='1680'> +3.8934225E-01 </wgt>
<wgt id='1681'> +3.9339794E-01 </wgt>
<wgt id='1682'> +3.9032223E-01 </wgt>
<wgt id='1683'> +3.9284027E-01 </wgt>
<wgt id='1684'> +3.9187872E-01 </wgt>
<wgt id='1685'> +3.9175331E-01 </wgt>
<wgt id='1686'> +3.9128552E-01 </wgt>
<wgt id='1687'> +3.9127561E-01 </wgt>
<wgt id='1688'> +3.9052677E-01 </wgt>
<wgt id='1689'> +3.9186934E-01 </wgt>
<wgt id='1690'> +3.9145144E-01 </wgt>
<wgt id='1691'> +3.8947648E-01 </wgt>
<wgt id='1692'> +3.9258368E-01 </wgt>
<wgt id='1693'> +3.9255412E-01 </wgt>
<wgt id='1694'> +3.9300095E-01 </wgt>
<wgt id='1695'> +3.9061099E-01 </wgt>
<wgt id='1696'> +3.9207831E-01 </wgt>
<wgt id='1697'> +3.9086205E-01 </wgt>
<wgt id='1698'> +3.9056818E-01 </wgt>
<wgt id='1699'> +3.9166871E-01 </wgt>
<wgt id='1700'> +3.9150832E-01 </wgt>
<wgt id='1701'> +3.9233906E-01 </wgt>
<wgt id='1702'> +3.9167832E-01 </wgt>
<wgt id='1703'> +3.9197448E-01 </wgt>
<wgt id='1704'> +3.9069825E-01 </wgt>
<wgt id='1705'> +3.9136482E-01 </wgt>
<wgt id='1706'> +3.9131458E-01 </wgt>
<wgt id='1707'> +3.9114645E-01 </wgt>
<wgt id='1708'> +3.9116564E-01 </wgt>
<wgt id='1709'> +3.9226951E-01 </wgt>
<wgt id='1710'> +3.9123863E-01 </wgt>
<wgt id='1711'> +3.9145732E-01 </wgt>
<wgt id='1712'> +3.9190910E-01 </wgt>
<wgt id='1713'> +3.8218882E-01 </wgt>
<wgt id='1714'> +4.0019841E-01 </wgt>
<wgt id='1715'> +3.7783029E-01 </wgt>
<wgt id='1716'> +3.7499185E-01 </wgt>
<wgt id='1717'> +3.7345836E-01 </wgt>
<wgt id='1718'> +3.8235919E-01 </wgt>
<wgt id='1719'> +3.5372905E-01 </wgt>
<wgt id='1720'> +3.9386580E-01 </wgt>
<wgt id='1721'> +3.8566654E-01 </wgt>
<wgt id='1722'> +3.9930985E-01 </wgt>
<wgt id='1723'> +3.9020482E-01 </wgt>
<wgt id='1724'> +3.8514891E-01 </wgt>
<wgt id='1725'> +3.7380150E-01 </wgt>
<wgt id='1726'> +3.7441740E-01 </wgt>
<wgt id='1727'> +3.8345972E-01 </wgt>
<wgt id='1728'> +3.6805312E-01 </wgt>
<wgt id='1729'> +3.6185582E-01 </wgt>
<wgt id='1730'> +3.6077024E-01 </wgt>
<wgt id='1731'> +3.5557630E-01 </wgt>
<wgt id='1732'> +3.7387778E-01 </wgt>
<wgt id='1733'> +3.9129685E-01 </wgt>
<wgt id='1734'> +4.0018000E-01 </wgt>
<wgt id='1735'> +3.7690305E-01 </wgt>
<wgt id='1736'> +3.8231912E-01 </wgt>
<wgt id='1737'> +3.7844577E-01 </wgt>
<wgt id='1738'> +3.7967631E-01 </wgt>
<wgt id='1739'> +3.8124743E-01 </wgt>
<wgt id='1740'> +3.7095814E-01 </wgt>
<wgt id='1741'> +3.5144791E-01 </wgt>
<wgt id='1742'> +3.9160696E-01 </wgt>
<wgt id='1743'> +3.7356469E-01 </wgt>
<wgt id='1744'> +3.6445206E-01 </wgt>
<wgt id='1745'> +3.6380358E-01 </wgt>
<wgt id='1746'> +3.5897131E-01 </wgt>
<wgt id='1747'> +3.8139500E-01 </wgt>
<wgt id='1748'> +3.7416372E-01 </wgt>
<wgt id='1749'> +3.8348331E-01 </wgt>
<wgt id='1750'> +3.8192609E-01 </wgt>
<wgt id='1751'> +3.8021948E-01 </wgt>
<wgt id='1752'> +3.6515684E-01 </wgt>
<wgt id='1753'> +3.8317555E-01 </wgt>
<wgt id='1754'> +3.8943807E-01 </wgt>
<wgt id='1755'> +3.5701444E-01 </wgt>
<wgt id='1756'> +3.7609062E-01 </wgt>
<wgt id='1757'> +3.6674168E-01 </wgt>
<wgt id='1758'> +3.8177123E-01 </wgt>
<wgt id='1759'> +4.0106178E-01 </wgt>
<wgt id='1760'> +4.0758041E-01 </wgt>
<wgt id='1761'> +3.8919616E-01 </wgt>
<wgt id='1762'> +3.8345972E-01 </wgt>
<wgt id='1763'> +3.8340974E-01 </wgt>
<wgt id='1764'> +4.0048284E-01 </wgt>
<wgt id='1765'> +3.7648104E-01 </wgt>
<wgt id='1766'> +3.7478634E-01 </wgt>
<wgt id='1767'> +3.7611800E-01 </wgt>
<wgt id='1768'> +3.4501621E-01 </wgt>
<wgt id='1769'> +3.5555507E-01 </wgt>
<wgt id='1770'> +3.9821358E-01 </wgt>
<wgt id='1771'> +3.7565708E-01 </wgt>
<wgt id='1772'> +4.1422410E-01 </wgt>
<wgt id='1773'> +3.7115176E-01 </wgt>
<wgt id='1774'> +3.8488064E-01 </wgt>
<wgt id='1775'> +3.8031178E-01 </wgt>
<wgt id='1776'> +3.6361071E-01 </wgt>
<wgt id='1777'> +3.8760856E-01 </wgt>
<wgt id='1778'> +3.8575974E-01 </wgt>
<wgt id='1779'> +3.7141108E-01 </wgt>
<wgt id='1780'> +3.8414138E-01 </wgt>
<wgt id='1781'> +3.7653471E-01 </wgt>
<wgt id='1782'> +3.7824254E-01 </wgt>
<wgt id='1783'> +3.5839718E-01 </wgt>
<wgt id='1784'> +3.7367321E-01 </wgt>
<wgt id='1785'> +3.8010721E-01 </wgt>
<wgt id='1786'> +4.1056575E-01 </wgt>
<wgt id='1787'> +3.8190692E-01 </wgt>
<wgt id='1788'> +3.7031268E-01 </wgt>
<wgt id='1789'> +3.6590368E-01 </wgt>
<wgt id='1790'> +3.5761294E-01 </wgt>
<wgt id='1791'> +3.5168993E-01 </wgt>
<wgt id='1792'> +3.8524720E-01 </wgt>
<wgt id='1793'> +3.8965530E-01 </wgt>
<wgt id='1794'> +3.9658491E-01 </wgt>
<wgt id='1795'> +3.9717468E-01 </wgt>
<wgt id='1796'> +3.6565044E-01 </wgt>
<wgt id='1797'> +3.6873429E-01 </wgt>
<wgt id='1798'> +3.8258281E-01 </wgt>
<wgt id='1799'> +3.6504352E-01 </wgt>
<wgt id='1800'> +3.8122844E-01 </wgt>
<wgt id='1801'> +3.5222827E-01 </wgt>
<wgt id='1802'> +3.8334541E-01 </wgt>
<wgt id='1803'> +3.6619003E-01 </wgt>
<wgt id='1804'> +3.8008161E-01 </wgt>
<wgt id='1805'> +4.0126259E-01 </wgt>
<wgt id='1806'> +3.6599207E-01 </wgt>
<wgt id='1807'> +3.7783541E-01 </wgt>
<wgt id='1808'> +3.8905916E-01 </wgt>
<wgt id='1809'> +3.7474548E-01 </wgt>
<wgt id='1810'> +3.8868802E-01 </wgt>
<wgt id='1811'> +3.8710336E-01 </wgt>
<wgt id='1812'> +3.7493840E-01 </wgt>
<wgt id='1813'> +3.9811039E-01 </wgt>
<wgt id='1814'> +3.3241314E-01 </wgt>
<wgt id='1815'> +3.8741689E-01 </wgt>
<wgt id='1816'> +3.8213106E-01 </wgt>
<wgt id='1817'> +3.8918206E-01 </wgt>
<wgt id='1818'> +3.7175665E-01 </wgt>
<wgt id='1819'> +3.7838703E-01 </wgt>
<wgt id='1820'> +3.7462837E-01 </wgt>
<wgt id='1821'> +3.8984901E-01 </wgt>
<wgt id='1822'> +3.9263398E-01 </wgt>
<wgt id='1823'> +3.9985498E-01 </wgt>
<wgt id='1824'> +3.8418233E-01 </wgt>
<wgt id='1825'> +3.8787301E-01 </wgt>
<wgt id='1826'> +3.7025377E-01 </wgt>
<wgt id='1827'> +3.6847930E-01 </wgt>
<wgt id='1828'> +3.9090576E-01 </wgt>
<wgt id='1829'> +4.0108269E-01 </wgt>
<wgt id='1830'> +3.6586722E-01 </wgt>
<wgt id='1831'> +3.7977586E-01 </wgt>
<wgt id='1832'> +3.8552601E-01 </wgt>
<wgt id='1833'> +3.5999526E-01 </wgt>
<wgt id='1834'> +3.7478014E-01 </wgt>
<wgt id='1835'> +3.9103158E-01 </wgt>
<wgt id='1836'> +3.7400397E-01 </wgt>
<wgt id='1837'> +4.1280612E-01 </wgt>
<wgt id='1838'> +3.8079352E-01 </wgt>
<wgt id='1839'> +4.1854326E-01 </wgt>
<wgt id='1840'> +3.9438430E-01 </wgt>
<wgt id='1841'> +3.8401180E-01 </wgt>
<wgt id='1842'> +3.9087416E-01 </wgt>
<wgt id='1843'> +3.6449251E-01 </wgt>
<wgt id='1844'> +3.7638499E-01 </wgt>
<wgt id='1845'> +3.8279763E-01 </wgt>
<wgt id='1846'> +3.8940049E-01 </wgt>
<wgt id='1847'> +3.7787592E-01 </wgt>
<wgt id='1848'> +4.0010629E-01 </wgt>
<wgt id='1849'> +3.5955292E-01 </wgt>
<wgt id='1850'> +3.9150546E-01 </wgt>
<wgt id='1851'> +3.9504985E-01 </wgt>
<wgt id='1852'> +3.9615731E-01 </wgt>
<wgt id='1853'> +3.6584435E-01 </wgt>
<wgt id='1854'> +4.1006123E-01 </wgt>
<wgt id='1855'> +3.7500414E-01 </wgt>
<wgt id='1856'> +3.7087965E-01 </wgt>
<wgt id='1857'> +4.0273128E-01 </wgt>
<wgt id='1858'> +3.6028083E-01 </wgt>
<wgt id='1859'> +3.6799144E-01 </wgt>
<wgt id='1860'> +3.7304668E-01 </wgt>
<wgt id='1861'> +3.9903710E-01 </wgt>
<wgt id='1862'> +3.7319338E-01 </wgt>
<wgt id='1863'> +3.8133235E-01 </wgt>
<wgt id='1864'> +3.8330688E-01 </wgt>
<wgt id='1865'> +3.4915547E-01 </wgt>
<wgt id='1866'> +3.7290610E-01 </wgt>
<wgt id='1867'> +3.8604856E-01 </wgt>
<wgt id='1868'> +4.0196720E-01 </wgt>
<wgt id='1869'> +3.6102592E-01 </wgt>
<wgt id='1870'> +4.0457765E-01 </wgt>
<wgt id='1871'> +3.7846762E-01 </wgt>
<wgt id='1872'> +3.7332969E-01 </wgt>
<wgt id='1873'> +3.6863191E-01 </wgt>
<wgt id='1874'> +3.7859428E-01 </wgt>
<wgt id='1875'> +3.6199096E-01 </wgt>
<wgt id='1876'> +4.0174984E-01 </wgt>
<wgt id='1877'> +3.9065812E-01 </wgt>
<wgt id='1878'> +3.5861899E-01 </wgt>
<wgt id='1879'> +4.0911332E-01 </wgt>
<wgt id='1880'> +3.5295315E-01 </wgt>
<wgt id='1881'> +3.6915478E-01 </wgt>
<wgt id='1882'> +3.9191868E-01 </wgt>
<wgt id='1883'> +4.3727016E-01 </wgt>
<wgt id='1884'> +3.6463444E-01 </wgt>
<wgt id='1885'> +3.8832886E-01 </wgt>
<wgt id='1886'> +3.6911360E-01 </wgt>
<wgt id='1887'> +3.9135614E-01 </wgt>
<wgt id='1888'> +3.8236115E-01 </wgt>
<wgt id='1889'> +3.9373343E-01 </wgt>
<wgt id='1890'> +3.8816241E-01 </wgt>
<wgt id='1891'> +3.6976515E-01 </wgt>
<wgt id='1892'> +3.8178638E-01 </wgt>
<wgt id='1893'> +3.8296484E-01 </wgt>
<wgt id='1894'> +4.0055583E-01 </wgt>
<wgt id='1895'> +3.6264145E-01 </wgt>
<wgt id='1896'> +3.7894316E-01 </wgt>
<wgt id='1897'> +3.8018153E-01 </wgt>
<wgt id='1898'> +3.9552493E-01 </wgt>
<wgt id='1899'> +3.4805940E-01 </wgt>
<wgt id='1900'> +3.8402369E-01 </wgt>
<wgt id='1901'> +3.8485548E-01 </wgt>
<wgt id='1902'> +3.9372780E-01 </wgt>
<wgt id='1903'> +3.6826573E-01 </wgt>
<wgt id='1904'> +3.7888954E-01 </wgt>
<wgt id='1905'> +3.8849720E-01 </wgt>
<wgt id='1906'> +3.9015249E-01 </wgt>
<wgt id='1907'> +3.9290105E-01 </wgt>
<wgt id='1908'> +3.9488384E-01 </wgt>
<wgt id='1909'> +3.7562140E-01 </wgt>
<wgt id='1910'> +3.7177301E-01 </wgt>
<wgt id='1911'> +3.5155855E-01 </wgt>
<wgt id='1912'> +3.9453778E-01 </wgt>
<wgt id='1913'> +3.9075953E-01 </wgt>
<wgt id='1914'> +3.8911665E-01 </wgt>
<wgt id='1915'> +3.8491041E-01 </wgt>
<wgt id='1916'> +3.4336460E-01 </wgt>
<wgt id='1917'> +3.8145963E-01 </wgt>
<wgt id='1918'> +4.1756980E-01 </wgt>
<wgt id='1919'> +3.8213106E-01 </wgt>
<wgt id='1920'> +3.8918206E-01 </wgt>
<wgt id='1921'> +3.7175665E-01 </wgt>
<wgt id='1922'> +3.7838703E-01 </wgt>
<wgt id='1923'> +3.7462837E-01 </wgt>
<wgt id='1924'> +3.8984901E-01 </wgt>
<wgt id='1925'> +3.9263398E-01 </wgt>
<wgt id='1926'> +3.9985498E-01 </wgt>
<wgt id='1927'> +3.8418233E-01 </wgt>
<wgt id='1928'> +3.8787301E-01 </wgt>
<wgt id='1929'> +3.7025377E-01 </wgt>
<wgt id='1930'> +3.6847930E-01 </wgt>
<wgt id='1931'> +3.9090576E-01 </wgt>
<wgt id='1932'> +4.0108269E-01 </wgt>
<wgt id='1933'> +3.6586722E-01 </wgt>
<wgt id='1934'> +3.7977586E-01 </wgt>
<wgt id='1935'> +3.8552601E-01 </wgt>
<wgt id='1936'> +3.5999526E-01 </wgt>
<wgt id='1937'> +3.7478014E-01 </wgt>
<wgt id='1938'> +3.9103158E-01 </wgt>
<wgt id='1939'> +3.7400397E-01 </wgt>
<wgt id='1940'> +4.1280612E-01 </wgt>
<wgt id='1941'> +3.8079352E-01 </wgt>
<wgt id='1942'> +4.1854326E-01 </wgt>
<wgt id='1943'> +3.9438430E-01 </wgt>
<wgt id='1944'> +3.8401180E-01 </wgt>
<wgt id='1945'> +3.9087416E-01 </wgt>
<wgt id='1946'> +3.6449251E-01 </wgt>
<wgt id='1947'> +3.7638499E-01 </wgt>
<wgt id='1948'> +3.8279763E-01 </wgt>
<wgt id='1949'> +3.8940049E-01 </wgt>
<wgt id='1950'> +3.7787592E-01 </wgt>
<wgt id='1951'> +4.0010629E-01 </wgt>
<wgt id='1952'> +3.5955292E-01 </wgt>
<wgt id='1953'> +3.9150546E-01 </wgt>
<wgt id='1954'> +3.9504985E-01 </wgt>
<wgt id='1955'> +3.9615731E-01 </wgt>
<wgt id='1956'> +3.6584435E-01 </wgt>
<wgt id='1957'> +4.1006123E-01 </wgt>
<wgt id='1958'> +3.7500414E-01 </wgt>
<wgt id='1959'> +3.7087965E-01 </wgt>
<wgt id='1960'> +4.0273128E-01 </wgt>
<wgt id='1961'> +3.6028083E-01 </wgt>
<wgt id='1962'> +3.6799144E-01 </wgt>
<wgt id='1963'> +3.7304668E-01 </wgt>
<wgt id='1964'> +3.9903710E-01 </wgt>
<wgt id='1965'> +3.7319338E-01 </wgt>
<wgt id='1966'> +3.8133235E-01 </wgt>
<wgt id='1967'> +3.8330688E-01 </wgt>
<wgt id='1968'> +3.4915547E-01 </wgt>
<wgt id='1969'> +3.7290610E-01 </wgt>
<wgt id='1970'> +3.8604856E-01 </wgt>
<wgt id='1971'> +4.0196720E-01 </wgt>
<wgt id='1972'> +3.6102592E-01 </wgt>
<wgt id='1973'> +4.0457765E-01 </wgt>
<wgt id='1974'> +3.7846762E-01 </wgt>
<wgt id='1975'> +3.7332969E-01 </wgt>
<wgt id='1976'> +3.6863191E-01 </wgt>
<wgt id='1977'> +3.7859428E-01 </wgt>
<wgt id='1978'> +3.6199096E-01 </wgt>
<wgt id='1979'> +4.0174984E-01 </wgt>
<wgt id='1980'> +3.9065812E-01 </wgt>
<wgt id='1981'> +3.5861899E-01 </wgt>
<wgt id='1982'> +4.0911332E-01 </wgt>
<wgt id='1983'> +3.5295315E-01 </wgt>
<wgt id='1984'> +3.6915478E-01 </wgt>
<wgt id='1985'> +3.9191868E-01 </wgt>
<wgt id='1986'> +4.3727016E-01 </wgt>
<wgt id='1987'> +3.6463444E-01 </wgt>
<wgt id='1988'> +3.8832886E-01 </wgt>
<wgt id='1989'> +3.6911360E-01 </wgt>
<wgt id='1990'> +3.9135614E-01 </wgt>
<wgt id='1991'> +3.8236115E-01 </wgt>
<wgt id='1992'> +3.9373343E-01 </wgt>
<wgt id='1993'> +3.8816241E-01 </wgt>
<wgt id='1994'> +3.6976515E-01 </wgt>
<wgt id='1995'> +3.8178638E-01 </wgt>
<wgt id='1996'> +3.8296484E-01 </wgt>
<wgt id='1997'> +4.0055583E-01 </wgt>
<wgt id='1998'> +3.6264145E-01 </wgt>
<wgt id='1999'> +3.7894316E-01 </wgt>
<wgt id='2000'> +3.8018153E-01 </wgt>
<wgt id='2001'> +3.9552493E-01 </wgt>
<wgt id='2002'> +3.4805940E-01 </wgt>
<wgt id='2003'> +3.8402369E-01 </wgt>
<wgt id='2004'> +3.8485548E-01 </wgt>
<wgt id='2005'> +3.9372780E-01 </wgt>
<wgt id='2006'> +3.6826573E-01 </wgt>
<wgt id='2007'> +3.7888954E-01 </wgt>
<wgt id='2008'> +3.8849720E-01 </wgt>
<wgt id='2009'> +3.9015249E-01 </wgt>
<wgt id='2010'> +3.9290105E-01 </wgt>
<wgt id='2011'> +3.9488384E-01 </wgt>
<wgt id='2012'> +3.7562140E-01 </wgt>
<wgt id='2013'> +3.7177301E-01 </wgt>
<wgt id='2014'> +3.5155855E-01 </wgt>
<wgt id='2015'> +3.9453778E-01 </wgt>
<wgt id='2016'> +3.9075953E-01 </wgt>
<wgt id='2017'> +3.8911665E-01 </wgt>
<wgt id='2018'> +3.8491041E-01 </wgt>
<wgt id='2019'> +3.4336460E-01 </wgt>
<wgt id='2020'> +3.8245382E-01 </wgt>
<wgt id='2021'> +3.8474239E-01 </wgt>
<wgt id='2022'> +3.7611756E-01 </wgt>
</rwgt>
</event>
<event>
13      2 +3.9556008E-01 8.07628800e+01 7.81860800e-03 1.20971400e-01
       21 -1    0    0  502  503 +0.0000000000e+00 +0.0000000000e+00 +1.9733668090e+02 1.9733668090e+02 0.0000000000e+00 0.0000e+00 1.0000e+00
        1 -1    0    0  501    0 +0.0000000000e+00 +0.0000000000e+00 -6.0781424660e+02 6.0781424662e+02 5.0400000000e-03 0.0000e+00 -1.0000e+00
 -8000001  2    1    2    0  503 +5.2452893113e+01 +2.1072368703e+00 -3.7603913321e+02 7.1003967203e+02 5.9999596641e+02 0.0000e+00 0.0000e+00
        2  1    1    2  501    0 -4.2912365902e+01 +6.9600781108e-02 -5.6252007905e+01 7.0751426779e+01 2.5500000000e-03 0.0000e+00 -1.0000e+00
        5  1    1    2  502    0 -9.5405272111e+00 -2.1768376515e+00 +2.1813575416e+01 2.4359828710e+01 4.6700000000e+00 0.0000e+00 -1.0000e+00
       -6  2    3    3    0  503 +9.8082094211e+01 -1.0958718989e+02 +7.1004382844e+01 2.3858369166e+02 1.7392845124e+02 0.0000e+00 0.0000e+00
       -5  1    6    6    0  503 +2.9059910988e+01 -1.0079677249e+02 +7.7032721725e+01 1.3023178141e+02 4.6700000000e+00 0.0000e+00 1.0000e+00
      -24  2    6    6    0    0 +6.9022183224e+01 -8.7904173940e+00 -6.0283388813e+00 1.0835191025e+02 8.2839980512e+01 0.0000e+00 0.0000e+00
      -14  1    8    8    0    0 -5.1261602795e+00 +1.9742282863e+01 -1.8971306438e+01 2.7855802265e+01 0.0000000000e+00 0.0000e+00 1.0000e+00
       13  1    8    8    0    0 +7.4148343503e+01 -2.8532700258e+01 +1.2942967556e+01 8.0496107989e+01 1.0566000000e-01 0.0000e+00 -1.0000e+00
       23  2    3    3    0    0 -4.5629201099e+01 +1.1169442675e+02 -4.4704351605e+02 4.7145598037e+02 8.8685777995e+01 0.0000e+00 0.0000e+00
        5  1   11   11  504    0 -4.6582316144e+01 +1.0779834616e+02 -2.7199993818e+02 2.9630418640e+02 4.6700000000e+00 0.0000e+00 -1.0000e+00
       -5  1   11   11    0  504 +9.5311504568e-01 +3.8960805980e+00 -1.7504357788e+02 1.7515179397e+02 4.6700000000e+00 0.0000e+00 1.0000e+00
<mgrwt>
<rscale>  1 0.59142068e+02</rscale>
<asrwt>0</asrwt>
<pdfrwt beam="1">  1       21 0.30359490e-01 0.80762876e+02</pdfrwt>
<pdfrwt beam="2">  1        1 0.93509883e-01 0.43309307e+02</pdfrwt>
<totfact> 0.49417171e+03</totfact>
</mgrwt>
<rwgt>
<wgt id='1001'> +3.9556008E-01 </wgt>
<wgt id='1002'> +2.7006877E-01 </wgt>
<wgt id='1003'> +2.6965716E-01 </wgt>
<wgt id='1004'> +3.0786586E-01 </wgt>
<wgt id='1005'> +2.4214570E-01 </wgt>
<wgt id='1006'> +3.5382557E-01 </wgt>
<wgt id='1007'> +2.4811681E-01 </wgt>
<wgt id='1008'> +2.4776061E-01 </wgt>
<wgt id='1009'> +2.8053926E-01 </wgt>
<wgt id='1010'> +2.2381690E-01 </wgt>
<wgt id='1011'> +4.4892885E-01 </wgt>
<wgt id='1012'> +2.9640775E-01 </wgt>
<wgt id='1013'> +2.9592376E-01 </wgt>
<wgt id='1014'> +3.4128674E-01 </wgt>
<wgt id='1015'> +2.6383138E-01 </wgt>
<wgt id='1016'> +3.8080424E-01 </wgt>
<wgt id='1017'> +2.5942456E-01 </wgt>
<wgt id='1018'> +2.5902916E-01 </wgt>
<wgt id='1019'> +2.9592376E-01 </wgt>
<wgt id='1020'> +2.3258515E-01 </wgt>
<wgt id='1021'> +3.4062658E-01 </wgt>
<wgt id='1022'> +2.3833780E-01 </wgt>
<wgt id='1023'> +2.3799562E-01 </wgt>
<wgt id='1024'> +2.6965716E-01 </wgt>
<wgt id='1025'> +2.1498002E-01 </wgt>
<wgt id='1026'> +4.3218217E-01 </wgt>
<wgt id='1027'> +2.8472545E-01 </wgt>
<wgt id='1028'> +2.8426052E-01 </wgt>
<wgt id='1029'> +3.2804823E-01 </wgt>
<wgt id='1030'> +2.5341463E-01 </wgt>
<wgt id='1031'> +4.0903698E-01 </wgt>
<wgt id='1032'> +2.8096339E-01 </wgt>
<wgt id='1033'> +2.8053926E-01 </wgt>
<wgt id='1034'> +3.1971266E-01 </wgt>
<wgt id='1035'> +2.5208694E-01 </wgt>
<wgt id='1036'> +3.6588053E-01 </wgt>
<wgt id='1037'> +2.5812589E-01 </wgt>
<wgt id='1038'> +2.5775907E-01 </wgt>
<wgt id='1039'> +2.9133451E-01 </wgt>
<wgt id='1040'> +2.3300565E-01 </wgt>
<wgt id='1041'> +4.6422404E-01 </wgt>
<wgt id='1042'> +3.0836488E-01 </wgt>
<wgt id='1043'> +3.0786586E-01 </wgt>
<wgt id='1044'> +3.5441956E-01 </wgt>
<wgt id='1045'> +2.7466292E-01 </wgt>
<wgt id='1046'> +3.9556008E-01 </wgt>
<wgt id='1047'> +3.9556008E-01 </wgt>
<wgt id='1048'> +3.9556008E-01 </wgt>
<wgt id='1049'> +3.9592469E-01 </wgt>
<wgt id='1050'> +3.9512747E-01 </wgt>
<wgt id='1051'> +3.9516186E-01 </wgt>
<wgt id='1052'> +3.9499775E-01 </wgt>
<wgt id='1053'> +3.9725189E-01 </wgt>
<wgt id='1054'> +3.9542678E-01 </wgt>
<wgt id='1055'> +3.9501825E-01 </wgt>
<wgt id='1056'> +3.9617732E-01 </wgt>
<wgt id='1057'> +3.9470036E-01 </wgt>
<wgt id='1058'> +3.9526884E-01 </wgt>
<wgt id='1059'> +3.9396636E-01 </wgt>
<wgt id='1060'> +3.9647788E-01 </wgt>
<wgt id='1061'> +3.9608994E-01 </wgt>
<wgt id='1062'> +3.9676901E-01 </wgt>
<wgt id='1063'> +3.9704132E-01 </wgt>
<wgt id='1064'> +3.9540686E-01 </wgt>
<wgt id='1065'> +3.9576037E-01 </wgt>
<wgt id='1066'> +3.9505195E-01 </wgt>
<wgt id='1067'> +3.9830952E-01 </wgt>
<wgt id='1068'> +3.9564603E-01 </wgt>
<wgt id='1069'> +3.9567448E-01 </wgt>
<wgt id='1070'> +3.9472747E-01 </wgt>
<wgt id='1071'> +3.9560394E-01 </wgt>
<wgt id='1072'> +3.9676694E-01 </wgt>
<wgt id='1073'> +3.9393211E-01 </wgt>
<wgt id='1074'> +3.9539299E-01 </wgt>
<wgt id='1075'> +3.9622948E-01 </wgt>
<wgt id='1076'> +3.9613864E-01 </wgt>
<wgt id='1077'> +3.9784996E-01 </wgt>
<wgt id='1078'> +3.9455354E-01 </wgt>
<wgt id='1079'> +3.9847762E-01 </wgt>
<wgt id='1080'> +3.9599182E-01 </wgt>
<wgt id='1081'> +3.9721397E-01 </wgt>
<wgt id='1082'> +3.9646614E-01 </wgt>
<wgt id='1083'> +3.9414932E-01 </wgt>
<wgt id='1084'> +3.9355443E-01 </wgt>
<wgt id='1085'> +3.9577770E-01 </wgt>
<wgt id='1086'> +3.9466049E-01 </wgt>
<wgt id='1087'> +3.9520727E-01 </wgt>
<wgt id='1088'> +3.9567862E-01 </wgt>
<wgt id='1089'> +3.9622770E-01 </wgt>
<wgt id='1090'> +3.9640172E-01 </wgt>
<wgt id='1091'> +3.9510134E-01 </wgt>
<wgt id='1092'> +3.9428775E-01 </wgt>
<wgt id='1093'> +3.9529779E-01 </wgt>
<wgt id='1094'> +3.9616505E-01 </wgt>
<wgt id='1095'> +3.9431548E-01 </wgt>
<wgt id='1096'> +3.9448009E-01 </wgt>
<wgt id='1097'> +3.9555571E-01 </wgt>
<wgt id='1098'> +3.9526167E-01 </wgt>
<wgt id='1099'> +3.9500238E-01 </wgt>
<wgt id='1100'> +3.9601853E-01 </wgt>
<wgt id='1101'> +3.9630578E-01 </wgt>
<wgt id='1102'> +3.9665938E-01 </wgt>
<wgt id='1103'> +3.9682734E-01 </wgt>
<wgt id='1104'> +3.9501429E-01 </wgt>
<wgt id='1105'> +3.9585703E-01 </wgt>
<wgt id='1106'> +3.9611353E-01 </wgt>
<wgt id='1107'> +3.9572941E-01 </wgt>
<wgt id='1108'> +3.9633529E-01 </wgt>
<wgt id='1109'> +3.9654312E-01 </wgt>
<wgt id='1110'> +3.9624555E-01 </wgt>
<wgt id='1111'> +3.9489954E-01 </wgt>
<wgt id='1112'> +3.9521400E-01 </wgt>
<wgt id='1113'> +3.9669483E-01 </wgt>
<wgt id='1114'> +3.9586519E-01 </wgt>
<wgt id='1115'> +3.9611141E-01 </wgt>
<wgt id='1116'> +3.9542090E-01 </wgt>
<wgt id='1117'> +3.9544216E-01 </wgt>
<wgt id='1118'> +3.9631455E-01 </wgt>
<wgt id='1119'> +3.9587774E-01 </wgt>
<wgt id='1120'> +3.9539148E-01 </wgt>
<wgt id='1121'> +3.9549787E-01 </wgt>
<wgt id='1122'> +3.9496120E-01 </wgt>
<wgt id='1123'> +3.9555044E-01 </wgt>
<wgt id='1124'> +3.9547612E-01 </wgt>
<wgt id='1125'> +3.9581378E-01 </wgt>
<wgt id='1126'> +3.9528392E-01 </wgt>
<wgt id='1127'> +3.9537741E-01 </wgt>
<wgt id='1128'> +3.9545864E-01 </wgt>
<wgt id='1129'> +3.9571138E-01 </wgt>
<wgt id='1130'> +3.9581046E-01 </wgt>
<wgt id='1131'> +3.9624017E-01 </wgt>
<wgt id='1132'> +3.9541632E-01 </wgt>
<wgt id='1133'> +3.9538758E-01 </wgt>
<wgt id='1134'> +3.9550049E-01 </wgt>
<wgt id='1135'> +3.9586973E-01 </wgt>
<wgt id='1136'> +3.9597601E-01 </wgt>
<wgt id='1137'> +3.9589592E-01 </wgt>
<wgt id='1138'> +3.9580158E-01 </wgt>
<wgt id='1139'> +3.9545005E-01 </wgt>
<wgt id='1140'> +3.9556133E-01 </wgt>
<wgt id='1141'> +3.9553262E-01 </wgt>
<wgt id='1142'> +3.9559745E-01 </wgt>
<wgt id='1143'> +3.9561740E-01 </wgt>
<wgt id='1144'> +3.9538266E-01 </wgt>
<wgt id='1145'> +3.9552615E-01 </wgt>
<wgt id='1146'> +3.9566027E-01 </wgt>
<wgt id='1147'> +3.9589067E-01 </wgt>
<wgt id='1148'> +3.9556008E-01 </wgt>
<wgt id='1149'> +4.0279081E-01 </wgt>
<wgt id='1150'> +4.0496908E-01 </wgt>
<wgt id='1151'> +4.0928547E-01 </wgt>
<wgt id='1152'> +4.0262640E-01 </wgt>
<wgt id='1153'> +4.0312961E-01 </wgt>
<wgt id='1154'> +4.0917523E-01 </wgt>
<wgt id='1155'> +4.0458566E-01 </wgt>
<wgt id='1156'> +4.1058792E-01 </wgt>
<wgt id='1157'> +4.0127243E-01 </wgt>
<wgt id='1158'> +4.1497915E-01 </wgt>
<wgt id='1159'> +3.8242997E-01 </wgt>
<wgt id='1160'> +3.9651775E-01 </wgt>
<wgt id='1161'> +4.0326810E-01 </wgt>
<wgt id='1162'> +3.9235916E-01 </wgt>
<wgt id='1163'> +3.9599995E-01 </wgt>
<wgt id='1164'> +4.1406316E-01 </wgt>
<wgt id='1165'> +4.0354892E-01 </wgt>
<wgt id='1166'> +4.0849564E-01 </wgt>
<wgt id='1167'> +4.0904417E-01 </wgt>
<wgt id='1168'> +4.0363425E-01 </wgt>
<wgt id='1169'> +4.0137344E-01 </wgt>
<wgt id='1170'> +4.0609512E-01 </wgt>
<wgt id='1171'> +4.0787192E-01 </wgt>
<wgt id='1172'> +4.0812527E-01 </wgt>
<wgt id='1173'> +3.9547856E-01 </wgt>
<wgt id='1174'> +4.0642894E-01 </wgt>
<wgt id='1175'> +4.0022395E-01 </wgt>
<wgt id='1176'> +3.8947118E-01 </wgt>
<wgt id='1177'> +4.1095456E-01 </wgt>
<wgt id='1178'> +4.0033282E-01 </wgt>
<wgt id='1179'> +4.1327630E-01 </wgt>
<wgt id='1180'> +4.1069250E-01 </wgt>
<wgt id='1181'> +4.0977616E-01 </wgt>
<wgt id='1182'> +4.1190894E-01 </wgt>
<wgt id='1183'> +3.9711314E-01 </wgt>
<wgt id='1184'> +3.9926142E-01 </wgt>
<wgt id='1185'> +3.9935485E-01 </wgt>
<wgt id='1186'> +4.0454625E-01 </wgt>
<wgt id='1187'> +3.9785351E-01 </wgt>
<wgt id='1188'> +4.0536282E-01 </wgt>
<wgt id='1189'> +3.9322809E-01 </wgt>
<wgt id='1190'> +4.0925568E-01 </wgt>
<wgt id='1191'> +4.0352087E-01 </wgt>
<wgt id='1192'> +4.0569204E-01 </wgt>
<wgt id='1193'> +4.0331953E-01 </wgt>
<wgt id='1194'> +4.0464359E-01 </wgt>
<wgt id='1195'> +3.9716842E-01 </wgt>
<wgt id='1196'> +3.9976652E-01 </wgt>
<wgt id='1197'> +3.9625257E-01 </wgt>
<wgt id='1198'> +4.1370679E-01 </wgt>
<wgt id='1199'> +4.0078562E-01 </wgt>
<wgt id='1200'> +4.0470836E-01 </wgt>
<wgt id='1201'> +4.0833779E-01 </wgt>
<wgt id='1202'> +4.0318142E-01 </wgt>
<wgt id='1203'> +4.0875270E-01 </wgt>
<wgt id='1204'> +3.9201846E-01 </wgt>
<wgt id='1205'> +4.0418042E-01 </wgt>
<wgt id='1206'> +4.0608565E-01 </wgt>
<wgt id='1207'> +4.1036357E-01 </wgt>
<wgt id='1208'> +4.0991007E-01 </wgt>
<wgt id='1209'> +4.1049693E-01 </wgt>
<wgt id='1210'> +3.9962411E-01 </wgt>
<wgt id='1211'> +4.0418074E-01 </wgt>
<wgt id='1212'> +3.9035065E-01 </wgt>
<wgt id='1213'> +3.9659266E-01 </wgt>
<wgt id='1214'> +4.0367919E-01 </wgt>
<wgt id='1215'> +4.0095122E-01 </wgt>
<wgt id='1216'> +3.9540721E-01 </wgt>
<wgt id='1217'> +4.0718973E-01 </wgt>
<wgt id='1218'> +3.9952202E-01 </wgt>
<wgt id='1219'> +3.9716516E-01 </wgt>
<wgt id='1220'> +4.1964503E-01 </wgt>
<wgt id='1221'> +4.0311467E-01 </wgt>
<wgt id='1222'> +4.0093960E-01 </wgt>
<wgt id='1223'> +3.9612565E-01 </wgt>
<wgt id='1224'> +4.0144939E-01 </wgt>
<wgt id='1225'> +4.0629360E-01 </wgt>
<wgt id='1226'> +3.9321950E-01 </wgt>
<wgt id='1227'> +4.1948738E-01 </wgt>
<wgt id='1228'> +4.0366329E-01 </wgt>
<wgt id='1229'> +3.8813157E-01 </wgt>
<wgt id='1230'> +4.0044055E-01 </wgt>
<wgt id='1231'> +4.0354892E-01 </wgt>
<wgt id='1232'> +3.7546882E-01 </wgt>
<wgt id='1233'> +4.0317327E-01 </wgt>
<wgt id='1234'> +4.1466840E-01 </wgt>
<wgt id='1235'> +4.0720884E-01 </wgt>
<wgt id='1236'> +4.0699207E-01 </wgt>
<wgt id='1237'> +4.0069332E-01 </wgt>
<wgt id='1238'> +3.6652962E-01 </wgt>
<wgt id='1239'> +4.0491823E-01 </wgt>
<wgt id='1240'> +4.1051464E-01 </wgt>
<wgt id='1241'> +4.0313019E-01 </wgt>
<wgt id='1242'> +4.0382522E-01 </wgt>
<wgt id='1243'> +4.0477074E-01 </wgt>
<wgt id='1244'> +4.0519372E-01 </wgt>
<wgt id='1245'> +4.1449545E-01 </wgt>
<wgt id='1246'> +3.9120138E-01 </wgt>
<wgt id='1247'> +3.9952925E-01 </wgt>
<wgt id='1248'> +3.9133774E-01 </wgt>
<wgt id='1249'> +4.1215164E-01 </wgt>
<wgt id='1250'> +3.8225470E-01 </wgt>
<wgt id='1251'> +3.8043710E-01 </wgt>
<wgt id='1252'> +3.8853940E-01 </wgt>
<wgt id='1253'> +3.8723317E-01 </wgt>
<wgt id='1254'> +3.3249917E-01 </wgt>
<wgt id='1255'> +3.8570845E-01 </wgt>
<wgt id='1256'> +3.8497131E-01 </wgt>
<wgt id='1257'> +3.8613157E-01 </wgt>
<wgt id='1258'> +3.8724491E-01 </wgt>
<wgt id='1259'> +3.8493604E-01 </wgt>
<wgt id='1260'> +3.8593760E-01 </wgt>
<wgt id='1261'> +3.8539699E-01 </wgt>
<wgt id='1262'> +3.8595822E-01 </wgt>
<wgt id='1263'> +3.8554745E-01 </wgt>
<wgt id='1264'> +3.8823671E-01 </wgt>
<wgt id='1265'> +3.8394965E-01 </wgt>
<wgt id='1266'> +3.8583639E-01 </wgt>
<wgt id='1267'> +3.8557774E-01 </wgt>
<wgt id='1268'> +3.8738505E-01 </wgt>
<wgt id='1269'> +3.8401361E-01 </wgt>
<wgt id='1270'> +3.8433051E-01 </wgt>
<wgt id='1271'> +3.8680140E-01 </wgt>
<wgt id='1272'> +3.8928327E-01 </wgt>
<wgt id='1273'> +3.8262356E-01 </wgt>
<wgt id='1274'> +3.8472783E-01 </wgt>
<wgt id='1275'> +3.8673013E-01 </wgt>
<wgt id='1276'> +3.8500940E-01 </wgt>
<wgt id='1277'> +3.8605124E-01 </wgt>
<wgt id='1278'> +3.8172207E-01 </wgt>
<wgt id='1279'> +3.8870658E-01 </wgt>
<wgt id='1280'> +3.8583986E-01 </wgt>
<wgt id='1281'> +3.8419019E-01 </wgt>
<wgt id='1282'> +3.8679287E-01 </wgt>
<wgt id='1283'> +3.8307778E-01 </wgt>
<wgt id='1284'> +3.8233875E-01 </wgt>
<wgt id='1285'> +3.8687724E-01 </wgt>
<wgt id='1286'> +3.8570900E-01 </wgt>
<wgt id='1287'> +3.8565020E-01 </wgt>
<wgt id='1288'> +3.8544761E-01 </wgt>
<wgt id='1289'> +3.8575959E-01 </wgt>
<wgt id='1290'> +3.8674149E-01 </wgt>
<wgt id='1291'> +3.8535648E-01 </wgt>
<wgt id='1292'> +3.8690270E-01 </wgt>
<wgt id='1293'> +3.8344865E-01 </wgt>
<wgt id='1294'> +3.8326039E-01 </wgt>
<wgt id='1295'> +3.8607842E-01 </wgt>
<wgt id='1296'> +3.9272764E-01 </wgt>
<wgt id='1297'> +3.9363694E-01 </wgt>
<wgt id='1298'> +3.9197422E-01 </wgt>
<wgt id='1299'> +3.9392413E-01 </wgt>
<wgt id='1300'> +3.9139363E-01 </wgt>
<wgt id='1301'> +3.9240704E-01 </wgt>
<wgt id='1302'> +3.9318900E-01 </wgt>
<wgt id='1303'> +3.9488163E-01 </wgt>
<wgt id='1304'> +3.9128421E-01 </wgt>
<wgt id='1305'> +3.9286668E-01 </wgt>
<wgt id='1306'> +3.9254524E-01 </wgt>
<wgt id='1307'> +3.9338079E-01 </wgt>
<wgt id='1308'> +3.9232258E-01 </wgt>
<wgt id='1309'> +3.9129842E-01 </wgt>
<wgt id='1310'> +3.9463745E-01 </wgt>
<wgt id='1311'> +3.9352239E-01 </wgt>
<wgt id='1312'> +3.9244892E-01 </wgt>
<wgt id='1313'> +3.9332807E-01 </wgt>
<wgt id='1314'> +3.9176490E-01 </wgt>
<wgt id='1315'> +3.8950590E-01 </wgt>
<wgt id='1316'> +3.9539733E-01 </wgt>
<wgt id='1317'> +3.8981508E-01 </wgt>
<wgt id='1318'> +3.9783965E-01 </wgt>
<wgt id='1319'> +3.9365281E-01 </wgt>
<wgt id='1320'> +3.9184648E-01 </wgt>
<wgt id='1321'> +3.9021764E-01 </wgt>
<wgt id='1322'> +3.9383548E-01 </wgt>
<wgt id='1323'> +3.8968720E-01 </wgt>
<wgt id='1324'> +3.9038982E-01 </wgt>
<wgt id='1325'> +3.9265699E-01 </wgt>
<wgt id='1326'> +3.9164529E-01 </wgt>
<wgt id='1327'> +3.9176604E-01 </wgt>
<wgt id='1328'> +3.9310821E-01 </wgt>
<wgt id='1329'> +3.9203419E-01 </wgt>
<wgt id='1330'> +3.9316363E-01 </wgt>
<wgt id='1331'> +3.9261985E-01 </wgt>
<wgt id='1332'> +3.9230682E-01 </wgt>
<wgt id='1333'> +3.9516635E-01 </wgt>
<wgt id='1334'> +3.8886262E-01 </wgt>
<wgt id='1335'> +3.9449407E-01 </wgt>
<wgt id='1336'> +3.9205600E-01 </wgt>
<wgt id='1337'> +3.9272764E-01 </wgt>
<wgt id='1338'> +3.9226011E-01 </wgt>
<wgt id='1339'> +3.9245920E-01 </wgt>
<wgt id='1340'> +3.9263261E-01 </wgt>
<wgt id='1341'> +3.9291168E-01 </wgt>
<wgt id='1342'> +3.9303027E-01 </wgt>
<wgt id='1343'> +3.9311383E-01 </wgt>
<wgt id='1344'> +3.9333847E-01 </wgt>
<wgt id='1345'> +3.9419583E-01 </wgt>
<wgt id='1346'> +3.9250190E-01 </wgt>
<wgt id='1347'> +3.9220174E-01 </wgt>
<wgt id='1348'> +3.9417903E-01 </wgt>
<wgt id='1349'> +3.9491876E-01 </wgt>
<wgt id='1350'> +3.9201211E-01 </wgt>
<wgt id='1351'> +3.9331931E-01 </wgt>
<wgt id='1352'> +3.9338548E-01 </wgt>
<wgt id='1353'> +3.9440288E-01 </wgt>
<wgt id='1354'> +3.9258211E-01 </wgt>
<wgt id='1355'> +3.9503439E-01 </wgt>
<wgt id='1356'> +3.9198986E-01 </wgt>
<wgt id='1357'> +3.9407045E-01 </wgt>
<wgt id='1358'> +3.9289330E-01 </wgt>
<wgt id='1359'> +3.9297176E-01 </wgt>
<wgt id='1360'> +3.9434970E-01 </wgt>
<wgt id='1361'> +3.9481825E-01 </wgt>
<wgt id='1362'> +3.9237279E-01 </wgt>
<wgt id='1363'> +3.9599939E-01 </wgt>
<wgt id='1364'> +3.8955614E-01 </wgt>
<wgt id='1365'> +3.9290216E-01 </wgt>
<wgt id='1366'> +3.9333160E-01 </wgt>
<wgt id='1367'> +3.9081181E-01 </wgt>
<wgt id='1368'> +3.9440198E-01 </wgt>
<wgt id='1369'> +3.9140597E-01 </wgt>
<wgt id='1370'> +3.9453406E-01 </wgt>
<wgt id='1371'> +3.9180976E-01 </wgt>
<wgt id='1372'> +3.9170130E-01 </wgt>
<wgt id='1373'> +3.9462688E-01 </wgt>
<wgt id='1374'> +3.9268157E-01 </wgt>
<wgt id='1375'> +3.9207112E-01 </wgt>
<wgt id='1376'> +3.9356197E-01 </wgt>
<wgt id='1377'> +3.9350730E-01 </wgt>
<wgt id='1378'> +3.9322043E-01 </wgt>
<wgt id='1379'> +3.9268358E-01 </wgt>
<wgt id='1380'> +3.9318041E-01 </wgt>
<wgt id='1381'> +3.9143536E-01 </wgt>
<wgt id='1382'> +3.9286791E-01 </wgt>
<wgt id='1383'> +3.9281571E-01 </wgt>
<wgt id='1384'> +3.9397760E-01 </wgt>
<wgt id='1385'> +3.9333847E-01 </wgt>
<wgt id='1386'> +3.9267947E-01 </wgt>
<wgt id='1387'> +3.9294136E-01 </wgt>
<wgt id='1388'> +3.9316599E-01 </wgt>
<wgt id='1389'> +3.9347748E-01 </wgt>
<wgt id='1390'> +3.9361023E-01 </wgt>
<wgt id='1391'> +3.9369207E-01 </wgt>
<wgt id='1392'> +4.0138363E-01 </wgt>
<wgt id='1393'> +4.0091056E-01 </wgt>
<wgt id='1394'> +4.0188638E-01 </wgt>
<wgt id='1395'> +4.0186846E-01 </wgt>
<wgt id='1396'> +4.0102767E-01 </wgt>
<wgt id='1397'> +4.0203080E-01 </wgt>
<wgt id='1398'> +4.0075565E-01 </wgt>
<wgt id='1399'> +4.0019267E-01 </wgt>
<wgt id='1400'> +4.0285605E-01 </wgt>
<wgt id='1401'> +4.0107500E-01 </wgt>
<wgt id='1402'> +4.0176761E-01 </wgt>
<wgt id='1403'> +4.0089320E-01 </wgt>
<wgt id='1404'> +4.0234648E-01 </wgt>
<wgt id='1405'> +4.0263278E-01 </wgt>
<wgt id='1406'> +3.9964100E-01 </wgt>
<wgt id='1407'> +4.0045631E-01 </wgt>
<wgt id='1408'> +4.0202114E-01 </wgt>
<wgt id='1409'> +4.0127919E-01 </wgt>
<wgt id='1410'> +4.0149794E-01 </wgt>
<wgt id='1411'> +3.9938494E-01 </wgt>
<wgt id='1412'> +4.0289656E-01 </wgt>
<wgt id='1413'> +4.0465832E-01 </wgt>
<wgt id='1414'> +3.9785905E-01 </wgt>
<wgt id='1415'> +4.0348842E-01 </wgt>
<wgt id='1416'> +3.9931032E-01 </wgt>
<wgt id='1417'> +4.0156808E-01 </wgt>
<wgt id='1418'> +4.0114487E-01 </wgt>
<wgt id='1419'> +3.9954093E-01 </wgt>
<wgt id='1420'> +4.0182848E-01 </wgt>
<wgt id='1421'> +4.0324253E-01 </wgt>
<wgt id='1422'> +3.9918235E-01 </wgt>
<wgt id='1423'> +4.0539610E-01 </wgt>
<wgt id='1424'> +3.9826749E-01 </wgt>
<wgt id='1425'> +4.0183264E-01 </wgt>
<wgt id='1426'> +4.0043432E-01 </wgt>
<wgt id='1427'> +4.0180911E-01 </wgt>
<wgt id='1428'> +4.0012848E-01 </wgt>
<wgt id='1429'> +4.0055498E-01 </wgt>
<wgt id='1430'> +4.0105875E-01 </wgt>
<wgt id='1431'> +4.0005722E-01 </wgt>
<wgt id='1432'> +4.0253515E-01 </wgt>
<wgt id='1433'> +3.9515365E-01 </wgt>
<wgt id='1434'> +4.0921755E-01 </wgt>
<wgt id='1435'> +4.0079657E-01 </wgt>
<wgt id='1436'> +4.0043910E-01 </wgt>
<wgt id='1437'> +3.9995889E-01 </wgt>
<wgt id='1438'> +4.0526921E-01 </wgt>
<wgt id='1439'> +4.0274782E-01 </wgt>
<wgt id='1440'> +3.9770518E-01 </wgt>
<wgt id='1441'> +4.0169480E-01 </wgt>
<wgt id='1442'> +4.0078046E-01 </wgt>
<wgt id='1443'> +3.9860551E-01 </wgt>
<wgt id='1444'> +3.9813148E-01 </wgt>
<wgt id='1445'> +3.9912357E-01 </wgt>
<wgt id='1446'> +3.9911251E-01 </wgt>
<wgt id='1447'> +3.9827579E-01 </wgt>
<wgt id='1448'> +3.9929104E-01 </wgt>
<wgt id='1449'> +3.9799413E-01 </wgt>
<wgt id='1450'> +3.9737934E-01 </wgt>
<wgt id='1451'> +3.9997890E-01 </wgt>
<wgt id='1452'> +3.9838303E-01 </wgt>
<wgt id='1453'> +3.9883483E-01 </wgt>
<wgt id='1454'> +3.9819445E-01 </wgt>
<wgt id='1455'> +3.9950825E-01 </wgt>
<wgt id='1456'> +4.0004056E-01 </wgt>
<wgt id='1457'> +3.9603973E-01 </wgt>
<wgt id='1458'> +3.9732957E-01 </wgt>
<wgt id='1459'> +3.9933426E-01 </wgt>
<wgt id='1460'> +3.9797595E-01 </wgt>
<wgt id='1461'> +3.9934897E-01 </wgt>
<wgt id='1462'> +3.9685807E-01 </wgt>
<wgt id='1463'> +4.0011028E-01 </wgt>
<wgt id='1464'> +4.0137047E-01 </wgt>
<wgt id='1465'> +3.9493251E-01 </wgt>
<wgt id='1466'> +4.0113593E-01 </wgt>
<wgt id='1467'> +3.9697850E-01 </wgt>
<wgt id='1468'> +3.9745862E-01 </wgt>
<wgt id='1469'> +3.9980724E-01 </wgt>
<wgt id='1470'> +3.9688952E-01 </wgt>
<wgt id='1471'> +3.9899723E-01 </wgt>
<wgt id='1472'> +3.9989875E-01 </wgt>
<wgt id='1473'> +3.9698319E-01 </wgt>
<wgt id='1474'> +4.0172718E-01 </wgt>
<wgt id='1475'> +3.9488029E-01 </wgt>
<wgt id='1476'> +3.9870281E-01 </wgt>
<wgt id='1477'> +3.9811304E-01 </wgt>
<wgt id='1478'> +3.9906623E-01 </wgt>
<wgt id='1479'> +3.9729569E-01 </wgt>
<wgt id='1480'> +3.9835795E-01 </wgt>
<wgt id='1481'> +3.9842558E-01 </wgt>
<wgt id='1482'> +3.9724612E-01 </wgt>
<wgt id='1483'> +3.9999361E-01 </wgt>
<wgt id='1484'> +3.9234830E-01 </wgt>
<wgt id='1485'> +4.0605869E-01 </wgt>
<wgt id='1486'> +3.9953825E-01 </wgt>
<wgt id='1487'> +3.9720226E-01 </wgt>
<wgt id='1488'> +3.9696901E-01 </wgt>
<wgt id='1489'> +4.0283228E-01 </wgt>
<wgt id='1490'> +4.0022250E-01 </wgt>
<wgt id='1491'> +3.9449576E-01 </wgt>
<wgt id='1492'> +3.9903757E-01 </wgt>
<wgt id='1493'> +3.9776425E-01 </wgt>
<wgt id='1494'> +3.8510761E-01 </wgt>
<wgt id='1495'> +3.8120488E-01 </wgt>
<wgt id='1496'> +3.8278080E-01 </wgt>
<wgt id='1497'> +3.8404253E-01 </wgt>
<wgt id='1498'> +3.8636104E-01 </wgt>
<wgt id='1499'> +3.8518272E-01 </wgt>
<wgt id='1500'> +3.8278264E-01 </wgt>
<wgt id='1501'> +3.8341999E-01 </wgt>
<wgt id='1502'> +3.8395961E-01 </wgt>
<wgt id='1503'> +3.8439575E-01 </wgt>
<wgt id='1504'> +3.8485146E-01 </wgt>
<wgt id='1505'> +3.8562836E-01 </wgt>
<wgt id='1506'> +3.8596189E-01 </wgt>
<wgt id='1507'> +3.8627771E-01 </wgt>
<wgt id='1508'> +3.8518272E-01 </wgt>
<wgt id='1509'> +3.8519440E-01 </wgt>
<wgt id='1510'> +3.8519193E-01 </wgt>
<wgt id='1511'> +3.8518662E-01 </wgt>
<wgt id='1512'> +3.8526680E-01 </wgt>
<wgt id='1513'> +3.9050236E-01 </wgt>
<wgt id='1514'> +3.8992159E-01 </wgt>
<wgt id='1515'> +3.9127480E-01 </wgt>
<wgt id='1516'> +3.9063837E-01 </wgt>
<wgt id='1517'> +3.9038531E-01 </wgt>
<wgt id='1518'> +3.9153727E-01 </wgt>
<wgt id='1519'> +3.9008952E-01 </wgt>
<wgt id='1520'> +3.8953895E-01 </wgt>
<wgt id='1521'> +3.9147762E-01 </wgt>
<wgt id='1522'> +3.9061752E-01 </wgt>
<wgt id='1523'> +3.9040331E-01 </wgt>
<wgt id='1524'> +3.9106624E-01 </wgt>
<wgt id='1525'> +3.9027219E-01 </wgt>
<wgt id='1526'> +3.9160105E-01 </wgt>
<wgt id='1527'> +3.8917472E-01 </wgt>
<wgt id='1528'> +3.9130753E-01 </wgt>
<wgt id='1529'> +3.8963037E-01 </wgt>
<wgt id='1530'> +3.9133296E-01 </wgt>
<wgt id='1531'> +3.9003949E-01 </wgt>
<wgt id='1532'> +3.9095626E-01 </wgt>
<wgt id='1533'> +3.8990540E-01 </wgt>
<wgt id='1534'> +3.8633322E-01 </wgt>
<wgt id='1535'> +3.9338588E-01 </wgt>
<wgt id='1536'> +3.8988454E-01 </wgt>
<wgt id='1537'> +3.9105558E-01 </wgt>
<wgt id='1538'> +3.9032103E-01 </wgt>
<wgt id='1539'> +3.9096759E-01 </wgt>
<wgt id='1540'> +3.8937318E-01 </wgt>
<wgt id='1541'> +3.9057837E-01 </wgt>
<wgt id='1542'> +3.8909218E-01 </wgt>
<wgt id='1543'> +3.9451015E-01 </wgt>
<wgt id='1544'> +3.9159840E-01 </wgt>
<wgt id='1545'> +3.8805509E-01 </wgt>
<wgt id='1546'> +3.8977862E-01 </wgt>
<wgt id='1547'> +3.9120924E-01 </wgt>
<wgt id='1548'> +3.8959283E-01 </wgt>
<wgt id='1549'> +3.9057039E-01 </wgt>
<wgt id='1550'> +3.9062337E-01 </wgt>
<wgt id='1551'> +3.8769261E-01 </wgt>
<wgt id='1552'> +3.8901352E-01 </wgt>
<wgt id='1553'> +3.9146207E-01 </wgt>
<wgt id='1554'> +3.9450694E-01 </wgt>
<wgt id='1555'> +3.8362445E-01 </wgt>
<wgt id='1556'> +3.9079544E-01 </wgt>
<wgt id='1557'> +3.8844670E-01 </wgt>
<wgt id='1558'> +3.8687587E-01 </wgt>
<wgt id='1559'> +3.9288561E-01 </wgt>
<wgt id='1560'> +3.9370223E-01 </wgt>
<wgt id='1561'> +3.8902397E-01 </wgt>
<wgt id='1562'> +3.8881151E-01 </wgt>
<wgt id='1563'> +3.9095510E-01 </wgt>
<wgt id='1564'> +3.9050236E-01 </wgt>
<wgt id='1565'> +3.8946809E-01 </wgt>
<wgt id='1566'> +3.9122733E-01 </wgt>
<wgt id='1567'> +3.9012019E-01 </wgt>
<wgt id='1568'> +3.8842934E-01 </wgt>
<wgt id='1569'> +3.8903589E-01 </wgt>
<wgt id='1570'> +3.8933791E-01 </wgt>
<wgt id='1571'> +3.8945030E-01 </wgt>
<wgt id='1572'> +3.8991681E-01 </wgt>
<wgt id='1573'> +3.9027347E-01 </wgt>
<wgt id='1574'> +3.9003392E-01 </wgt>
<wgt id='1575'> +3.9016323E-01 </wgt>
<wgt id='1576'> +3.9012019E-01 </wgt>
<wgt id='1577'> +3.9004854E-01 </wgt>
<wgt id='1578'> +3.9006377E-01 </wgt>
<wgt id='1579'> +3.9018097E-01 </wgt>
<wgt id='1580'> +3.9021345E-01 </wgt>
<wgt id='1581'> +3.8657979E-01 </wgt>
<wgt id='1582'> +3.8677557E-01 </wgt>
<wgt id='1583'> +3.9080435E-01 </wgt>
<wgt id='1584'> +3.8391485E-01 </wgt>
<wgt id='1585'> +3.8755342E-01 </wgt>
<wgt id='1586'> +3.8124952E-01 </wgt>
<wgt id='1587'> +3.8397578E-01 </wgt>
<wgt id='1588'> +3.8844597E-01 </wgt>
<wgt id='1589'> +3.8630754E-01 </wgt>
<wgt id='1590'> +3.8622279E-01 </wgt>
<wgt id='1591'> +3.8587105E-01 </wgt>
<wgt id='1592'> +3.8879814E-01 </wgt>
<wgt id='1593'> +3.8633186E-01 </wgt>
<wgt id='1594'> +3.8755494E-01 </wgt>
<wgt id='1595'> +3.8628744E-01 </wgt>
<wgt id='1596'> +3.8775287E-01 </wgt>
<wgt id='1597'> +3.8571410E-01 </wgt>
<wgt id='1598'> +3.8737760E-01 </wgt>
<wgt id='1599'> +3.8889297E-01 </wgt>
<wgt id='1600'> +3.8756129E-01 </wgt>
<wgt id='1601'> +3.8687561E-01 </wgt>
<wgt id='1602'> +3.8708842E-01 </wgt>
<wgt id='1603'> +3.8693048E-01 </wgt>
<wgt id='1604'> +3.8735217E-01 </wgt>
<wgt id='1605'> +3.8588739E-01 </wgt>
<wgt id='1606'> +3.8638279E-01 </wgt>
<wgt id='1607'> +3.8710427E-01 </wgt>
<wgt id='1608'> +3.9112676E-01 </wgt>
<wgt id='1609'> +3.8681812E-01 </wgt>
<wgt id='1610'> +3.8605884E-01 </wgt>
<wgt id='1611'> +3.8830501E-01 </wgt>
<wgt id='1612'> +3.9347177E-01 </wgt>
<wgt id='1613'> +3.9331202E-01 </wgt>
<wgt id='1614'> +3.9389166E-01 </wgt>
<wgt id='1615'> +3.9403419E-01 </wgt>
<wgt id='1616'> +3.9324154E-01 </wgt>
<wgt id='1617'> +3.9297086E-01 </wgt>
<wgt id='1618'> +3.9333162E-01 </wgt>
<wgt id='1619'> +3.9158958E-01 </wgt>
<wgt id='1620'> +3.9181768E-01 </wgt>
<wgt id='1621'> +3.9395311E-01 </wgt>
<wgt id='1622'> +3.9377245E-01 </wgt>
<wgt id='1623'> +3.9203687E-01 </wgt>
<wgt id='1624'> +3.9326336E-01 </wgt>
<wgt id='1625'> +3.9378343E-01 </wgt>
<wgt id='1626'> +3.9466847E-01 </wgt>
<wgt id='1627'> +3.9474332E-01 </wgt>
<wgt id='1628'> +3.9400915E-01 </wgt>
<wgt id='1629'> +3.9330736E-01 </wgt>
<wgt id='1630'> +3.9411991E-01 </wgt>
<wgt id='1631'> +3.9253437E-01 </wgt>
<wgt id='1632'> +3.9429046E-01 </wgt>
<wgt id='1633'> +3.9301175E-01 </wgt>
<wgt id='1634'> +3.9512703E-01 </wgt>
<wgt id='1635'> +3.9255313E-01 </wgt>
<wgt id='1636'> +3.9580516E-01 </wgt>
<wgt id='1637'> +3.9440527E-01 </wgt>
<wgt id='1638'> +3.9327780E-01 </wgt>
<wgt id='1639'> +3.9505716E-01 </wgt>
<wgt id='1640'> +3.9434757E-01 </wgt>
<wgt id='1641'> +3.8876433E-01 </wgt>
<wgt id='1642'> +3.9308587E-01 </wgt>
<wgt id='1643'> +3.9322815E-01 </wgt>
<wgt id='1644'> +3.9270152E-01 </wgt>
<wgt id='1645'> +3.9243998E-01 </wgt>
<wgt id='1646'> +3.9343842E-01 </wgt>
<wgt id='1647'> +3.9410896E-01 </wgt>
<wgt id='1648'> +3.9329650E-01 </wgt>
<wgt id='1649'> +3.9447324E-01 </wgt>
<wgt id='1650'> +3.9313652E-01 </wgt>
<wgt id='1651'> +3.9384585E-01 </wgt>
<wgt id='1652'> +3.9330838E-01 </wgt>
<wgt id='1653'> +3.9301088E-01 </wgt>
<wgt id='1654'> +3.9307015E-01 </wgt>
<wgt id='1655'> +3.9330669E-01 </wgt>
<wgt id='1656'> +3.9453889E-01 </wgt>
<wgt id='1657'> +3.9238013E-01 </wgt>
<wgt id='1658'> +3.9429250E-01 </wgt>
<wgt id='1659'> +3.9493693E-01 </wgt>
<wgt id='1660'> +3.9292528E-01 </wgt>
<wgt id='1661'> +3.9479481E-01 </wgt>
<wgt id='1662'> +3.9401739E-01 </wgt>
<wgt id='1663'> +3.9388572E-01 </wgt>
<wgt id='1664'> +3.9296556E-01 </wgt>
<wgt id='1665'> +3.9281551E-01 </wgt>
<wgt id='1666'> +3.9351697E-01 </wgt>
<wgt id='1667'> +3.9240821E-01 </wgt>
<wgt id='1668'> +3.9417711E-01 </wgt>
<wgt id='1669'> +3.9288867E-01 </wgt>
<wgt id='1670'> +3.9348619E-01 </wgt>
<wgt id='1671'> +3.9364529E-01 </wgt>
<wgt id='1672'> +3.9360094E-01 </wgt>
<wgt id='1673'> +3.9318935E-01 </wgt>
<wgt id='1674'> +3.9404427E-01 </wgt>
<wgt id='1675'> +3.9369402E-01 </wgt>
<wgt id='1676'> +3.9295796E-01 </wgt>
<wgt id='1677'> +3.9372600E-01 </wgt>
<wgt id='1678'> +3.9354056E-01 </wgt>
<wgt id='1679'> +3.9367544E-01 </wgt>
<wgt id='1680'> +3.9393759E-01 </wgt>
<wgt id='1681'> +3.9311404E-01 </wgt>
<wgt id='1682'> +3.9308118E-01 </wgt>
<wgt id='1683'> +3.9278173E-01 </wgt>
<wgt id='1684'> +3.9420952E-01 </wgt>
<wgt id='1685'> +3.9281653E-01 </wgt>
<wgt id='1686'> +3.9375271E-01 </wgt>
<wgt id='1687'> +3.9332079E-01 </wgt>
<wgt id='1688'> +3.9315332E-01 </wgt>
<wgt id='1689'> +3.9374321E-01 </wgt>
<wgt id='1690'> +3.9339686E-01 </wgt>
<wgt id='1691'> +3.9383961E-01 </wgt>
<wgt id='1692'> +3.9383725E-01 </wgt>
<wgt id='1693'> +3.9326639E-01 </wgt>
<wgt id='1694'> +3.9346167E-01 </wgt>
<wgt id='1695'> +3.9329324E-01 </wgt>
<wgt id='1696'> +3.9314919E-01 </wgt>
<wgt id='1697'> +3.9350992E-01 </wgt>
<wgt id='1698'> +3.9356925E-01 </wgt>
<wgt id='1699'> +3.9318912E-01 </wgt>
<wgt id='1700'> +3.9339616E-01 </wgt>
<wgt id='1701'> +3.9350646E-01 </wgt>
<wgt id='1702'> +3.9352213E-01 </wgt>
<wgt id='1703'> +3.9396278E-01 </wgt>
<wgt id='1704'> +3.9322188E-01 </wgt>
<wgt id='1705'> +3.9322704E-01 </wgt>
<wgt id='1706'> +3.9331715E-01 </wgt>
<wgt id='1707'> +3.9329504E-01 </wgt>
<wgt id='1708'> +3.9317788E-01 </wgt>
<wgt id='1709'> +3.9394915E-01 </wgt>
<wgt id='1710'> +3.9338999E-01 </wgt>
<wgt id='1711'> +3.9328334E-01 </wgt>
<wgt id='1712'> +3.9393846E-01 </wgt>
<wgt id='1713'> +3.8706699E-01 </wgt>
<wgt id='1714'> +3.9841920E-01 </wgt>
<wgt id='1715'> +4.0673097E-01 </wgt>
<wgt id='1716'> +4.0655791E-01 </wgt>
<wgt id='1717'> +4.1244882E-01 </wgt>
<wgt id='1718'> +3.9324175E-01 </wgt>
<wgt id='1719'> +4.0070672E-01 </wgt>
<wgt id='1720'> +4.1611084E-01 </wgt>
<wgt id='1721'> +3.9785392E-01 </wgt>
<wgt id='1722'> +4.0064803E-01 </wgt>
<wgt id='1723'> +4.1563469E-01 </wgt>
<wgt id='1724'> +4.0720202E-01 </wgt>
<wgt id='1725'> +4.0833357E-01 </wgt>
<wgt id='1726'> +4.1145084E-01 </wgt>
<wgt id='1727'> +4.0783545E-01 </wgt>
<wgt id='1728'> +4.1027346E-01 </wgt>
<wgt id='1729'> +4.0403492E-01 </wgt>
<wgt id='1730'> +4.0465232E-01 </wgt>
<wgt id='1731'> +3.8390926E-01 </wgt>
<wgt id='1732'> +4.1850947E-01 </wgt>
<wgt id='1733'> +4.1305074E-01 </wgt>
<wgt id='1734'> +4.0999564E-01 </wgt>
<wgt id='1735'> +3.8143511E-01 </wgt>
<wgt id='1736'> +4.1044055E-01 </wgt>
<wgt id='1737'> +4.0214981E-01 </wgt>
<wgt id='1738'> +4.1493145E-01 </wgt>
<wgt id='1739'> +4.0691340E-01 </wgt>
<wgt id='1740'> +4.0174693E-01 </wgt>
<wgt id='1741'> +4.0432709E-01 </wgt>
<wgt id='1742'> +4.2234097E-01 </wgt>
<wgt id='1743'> +3.9395113E-01 </wgt>
<wgt id='1744'> +4.0608137E-01 </wgt>
<wgt id='1745'> +3.8960806E-01 </wgt>
<wgt id='1746'> +4.0479914E-01 </wgt>
<wgt id='1747'> +4.0924484E-01 </wgt>
<wgt id='1748'> +3.9821070E-01 </wgt>
<wgt id='1749'> +4.1727544E-01 </wgt>
<wgt id='1750'> +4.0891262E-01 </wgt>
<wgt id='1751'> +4.1137506E-01 </wgt>
<wgt id='1752'> +4.0131303E-01 </wgt>
<wgt id='1753'> +3.9972945E-01 </wgt>
<wgt id='1754'> +4.0674978E-01 </wgt>
<wgt id='1755'> +4.0745331E-01 </wgt>
<wgt id='1756'> +4.0827226E-01 </wgt>
<wgt id='1757'> +4.0875377E-01 </wgt>
<wgt id='1758'> +4.0448267E-01 </wgt>
<wgt id='1759'> +3.9914419E-01 </wgt>
<wgt id='1760'> +4.0251095E-01 </wgt>
<wgt id='1761'> +4.0591638E-01 </wgt>
<wgt id='1762'> +4.0783545E-01 </wgt>
<wgt id='1763'> +4.0120845E-01 </wgt>
<wgt id='1764'> +4.0909345E-01 </wgt>
<wgt id='1765'> +4.0717695E-01 </wgt>
<wgt id='1766'> +4.1736337E-01 </wgt>
<wgt id='1767'> +4.0279386E-01 </wgt>
<wgt id='1768'> +3.9467848E-01 </wgt>
<wgt id='1769'> +4.0791211E-01 </wgt>
<wgt id='1770'> +4.2338356E-01 </wgt>
<wgt id='1771'> +4.0466974E-01 </wgt>
<wgt id='1772'> +4.0781169E-01 </wgt>
<wgt id='1773'> +4.0736547E-01 </wgt>
<wgt id='1774'> +3.9681899E-01 </wgt>
<wgt id='1775'> +4.0315023E-01 </wgt>
<wgt id='1776'> +4.1639213E-01 </wgt>
<wgt id='1777'> +4.2010902E-01 </wgt>
<wgt id='1778'> +4.0373887E-01 </wgt>
<wgt id='1779'> +4.0903226E-01 </wgt>
<wgt id='1780'> +4.0687676E-01 </wgt>
<wgt id='1781'> +4.1168623E-01 </wgt>
<wgt id='1782'> +4.2565504E-01 </wgt>
<wgt id='1783'> +4.0904668E-01 </wgt>
<wgt id='1784'> +4.1345664E-01 </wgt>
<wgt id='1785'> +4.0771342E-01 </wgt>
<wgt id='1786'> +4.1822341E-01 </wgt>
<wgt id='1787'> +4.0410607E-01 </wgt>
<wgt id='1788'> +4.0876190E-01 </wgt>
<wgt id='1789'> +4.0570287E-01 </wgt>
<wgt id='1790'> +4.0744845E-01 </wgt>
<wgt id='1791'> +3.8228557E-01 </wgt>
<wgt id='1792'> +4.1293039E-01 </wgt>
<wgt id='1793'> +4.1763329E-01 </wgt>
<wgt id='1794'> +4.1237088E-01 </wgt>
<wgt id='1795'> +3.8360074E-01 </wgt>
<wgt id='1796'> +4.0320152E-01 </wgt>
<wgt id='1797'> +3.9546435E-01 </wgt>
<wgt id='1798'> +4.0082983E-01 </wgt>
<wgt id='1799'> +4.1487652E-01 </wgt>
<wgt id='1800'> +4.2110932E-01 </wgt>
<wgt id='1801'> +4.0028750E-01 </wgt>
<wgt id='1802'> +4.1612511E-01 </wgt>
<wgt id='1803'> +4.0744189E-01 </wgt>
<wgt id='1804'> +4.1454185E-01 </wgt>
<wgt id='1805'> +4.1385766E-01 </wgt>
<wgt id='1806'> +3.9891379E-01 </wgt>
<wgt id='1807'> +3.9736737E-01 </wgt>
<wgt id='1808'> +3.9588689E-01 </wgt>
<wgt id='1809'> +4.1323591E-01 </wgt>
<wgt id='1810'> +4.0177556E-01 </wgt>
<wgt id='1811'> +4.1611011E-01 </wgt>
<wgt id='1812'> +4.0556692E-01 </wgt>
<wgt id='1813'> +4.1369249E-01 </wgt>
<wgt id='1814'> +4.0780222E-01 </wgt>
<wgt id='1815'> +4.1620206E-01 </wgt>
<wgt id='1816'> +3.9132268E-01 </wgt>
<wgt id='1817'> +3.9997913E-01 </wgt>
<wgt id='1818'> +3.8868319E-01 </wgt>
<wgt id='1819'> +3.8491795E-01 </wgt>
<wgt id='1820'> +4.0333092E-01 </wgt>
<wgt id='1821'> +3.8330128E-01 </wgt>
<wgt id='1822'> +3.9673222E-01 </wgt>
<wgt id='1823'> +3.9657973E-01 </wgt>
<wgt id='1824'> +3.9852376E-01 </wgt>
<wgt id='1825'> +3.9005399E-01 </wgt>
<wgt id='1826'> +3.8496505E-01 </wgt>
<wgt id='1827'> +3.8684159E-01 </wgt>
<wgt id='1828'> +3.8749829E-01 </wgt>
<wgt id='1829'> +3.9446908E-01 </wgt>
<wgt id='1830'> +3.7608174E-01 </wgt>
<wgt id='1831'> +3.9395451E-01 </wgt>
<wgt id='1832'> +3.8791573E-01 </wgt>
<wgt id='1833'> +3.7740947E-01 </wgt>
<wgt id='1834'> +3.6811373E-01 </wgt>
<wgt id='1835'> +3.9860970E-01 </wgt>
<wgt id='1836'> +4.0714043E-01 </wgt>
<wgt id='1837'> +4.0404237E-01 </wgt>
<wgt id='1838'> +3.9787885E-01 </wgt>
<wgt id='1839'> +4.0609652E-01 </wgt>
<wgt id='1840'> +3.8608229E-01 </wgt>
<wgt id='1841'> +3.8615504E-01 </wgt>
<wgt id='1842'> +3.9031232E-01 </wgt>
<wgt id='1843'> +3.7529678E-01 </wgt>
<wgt id='1844'> +3.8363974E-01 </wgt>
<wgt id='1845'> +3.9169690E-01 </wgt>
<wgt id='1846'> +3.9340112E-01 </wgt>
<wgt id='1847'> +3.8945190E-01 </wgt>
<wgt id='1848'> +3.9679968E-01 </wgt>
<wgt id='1849'> +3.9985241E-01 </wgt>
<wgt id='1850'> +3.8866464E-01 </wgt>
<wgt id='1851'> +3.8885473E-01 </wgt>
<wgt id='1852'> +3.8912702E-01 </wgt>
<wgt id='1853'> +3.8154316E-01 </wgt>
<wgt id='1854'> +4.0285214E-01 </wgt>
<wgt id='1855'> +3.8972101E-01 </wgt>
<wgt id='1856'> +3.9433851E-01 </wgt>
<wgt id='1857'> +4.0822784E-01 </wgt>
<wgt id='1858'> +3.9348074E-01 </wgt>
<wgt id='1859'> +3.9450586E-01 </wgt>
<wgt id='1860'> +3.9024761E-01 </wgt>
<wgt id='1861'> +3.9326347E-01 </wgt>
<wgt id='1862'> +3.9330789E-01 </wgt>
<wgt id='1863'> +3.9242545E-01 </wgt>
<wgt id='1864'> +3.8997553E-01 </wgt>
<wgt id='1865'> +3.8449090E-01 </wgt>
<wgt id='1866'> +3.9335985E-01 </wgt>
<wgt id='1867'> +3.9586589E-01 </wgt>
<wgt id='1868'> +3.9108907E-01 </wgt>
<wgt id='1869'> +3.8513394E-01 </wgt>
<wgt id='1870'> +3.9916196E-01 </wgt>
<wgt id='1871'> +3.9281554E-01 </wgt>
<wgt id='1872'> +3.7463647E-01 </wgt>
<wgt id='1873'> +3.9023063E-01 </wgt>
<wgt id='1874'> +3.9126356E-01 </wgt>
<wgt id='1875'> +3.8304717E-01 </wgt>
<wgt id='1876'> +4.0010396E-01 </wgt>
<wgt id='1877'> +3.9095053E-01 </wgt>
<wgt id='1878'> +3.8853850E-01 </wgt>
<wgt id='1879'> +3.8144728E-01 </wgt>
<wgt id='1880'> +3.6308583E-01 </wgt>
<wgt id='1881'> +3.9333090E-01 </wgt>
<wgt id='1882'> +3.8376200E-01 </wgt>
<wgt id='1883'> +4.3634085E-01 </wgt>
<wgt id='1884'> +3.8644174E-01 </wgt>
<wgt id='1885'> +3.8245519E-01 </wgt>
<wgt id='1886'> +3.9310489E-01 </wgt>
<wgt id='1887'> +3.9935803E-01 </wgt>
<wgt id='1888'> +3.8985172E-01 </wgt>
<wgt id='1889'> +3.9633368E-01 </wgt>
<wgt id='1890'> +3.9050600E-01 </wgt>
<wgt id='1891'> +3.9109854E-01 </wgt>
<wgt id='1892'> +3.9665379E-01 </wgt>
<wgt id='1893'> +3.8769616E-01 </wgt>
<wgt id='1894'> +4.0308287E-01 </wgt>
<wgt id='1895'> +3.9751424E-01 </wgt>
<wgt id='1896'> +3.9245530E-01 </wgt>
<wgt id='1897'> +3.9494599E-01 </wgt>
<wgt id='1898'> +3.9267461E-01 </wgt>
<wgt id='1899'> +4.0121570E-01 </wgt>
<wgt id='1900'> +3.8961663E-01 </wgt>
<wgt id='1901'> +3.8888202E-01 </wgt>
<wgt id='1902'> +3.8522303E-01 </wgt>
<wgt id='1903'> +3.9607218E-01 </wgt>
<wgt id='1904'> +3.9438963E-01 </wgt>
<wgt id='1905'> +3.9171455E-01 </wgt>
<wgt id='1906'> +3.8573047E-01 </wgt>
<wgt id='1907'> +3.9450534E-01 </wgt>
<wgt id='1908'> +3.9946724E-01 </wgt>
<wgt id='1909'> +3.8740719E-01 </wgt>
<wgt id='1910'> +3.9781845E-01 </wgt>
<wgt id='1911'> +3.6805248E-01 </wgt>
<wgt id='1912'> +3.9531969E-01 </wgt>
<wgt id='1913'> +3.8090417E-01 </wgt>
<wgt id='1914'> +3.9690948E-01 </wgt>
<wgt id='1915'> +3.9655340E-01 </wgt>
<wgt id='1916'> +3.7216238E-01 </wgt>
<wgt id='1917'> +3.8025798E-01 </wgt>
<wgt id='1918'> +4.1221612E-01 </wgt>
<wgt id='1919'> +3.9132268E-01 </wgt>
<wgt id='1920'> +3.9997913E-01 </wgt>
<wgt id='1921'> +3.8868319E-01 </wgt>
<wgt id='1922'> +3.8491795E-01 </wgt>
<wgt id='1923'> +4.0333092E-01 </wgt>
<wgt id='1924'> +3.8330128E-01 </wgt>
<wgt id='1925'> +3.9673222E-01 </wgt>
<wgt id='1926'> +3.9657973E-01 </wgt>
<wgt id='1927'> +3.9852376E-01 </wgt>
<wgt id='1928'> +3.9005399E-01 </wgt>
<wgt id='1929'> +3.8496505E-01 </wgt>
<wgt id='1930'> +3.8684159E-01 </wgt>
<wgt id='1931'> +3.8749829E-01 </wgt>
<wgt id='1932'> +3.9446908E-01 </wgt>
<wgt id='1933'> +3.7608174E-01 </wgt>
<wgt id='1934'> +3.9395451E-01 </wgt>
<wgt id='1935'> +3.8791573E-01 </wgt>
<wgt id='1936'> +3.7740947E-01 </wgt>
<wgt id='1937'> +3.6811373E-01 </wgt>
<wgt id='1938'> +3.9860970E-01 </wgt>
<wgt id='1939'> +4.0714043E-01 </wgt>
<wgt id='1940'> +4.0404237E-01 </wgt>
<wgt id='1941'> +3.9787885E-01 </wgt>
<wgt id='1942'> +4.0609652E-01 </wgt>
<wgt id='1943'> +3.8608229E-01 </wgt>
<wgt id='1944'> +3.8615504E-01 </wgt>
<wgt id='1945'> +3.9031232E-01 </wgt>
<wgt id='1946'> +3.7529678E-01 </wgt>
<wgt id='1947'> +3.8363974E-01 </wgt>
<wgt id='1948'> +3.9169690E-01 </wgt>
<wgt id='1949'> +3.9340112E-01 </wgt>
<wgt id='1950'> +3.8945190E-01 </wgt>
<wgt id='1951'> +3.9679968E-01 </wgt>
<wgt id='1952'> +3.9985241E-01 </wgt>
<wgt id='1953'> +3.8866464E-01 </wgt>
<wgt id='1954'> +3.8885473E-01 </wgt>
<wgt id='1955'> +3.8912702E-01 </wgt>
<wgt id='1956'> +3.8154316E-01 </wgt>
<wgt id='1957'> +4.0285214E-01 </wgt>
<wgt id='1958'> +3.8972101E-01 </wgt>
<wgt id='1959'> +3.9433851E-01 </wgt>
<wgt id='1960'> +4.0822784E-01 </wgt>
<wgt id='1961'> +3.9348074E-01 </wgt>
<wgt id='1962'> +3.9450586E-01 </wgt>
<wgt id='1963'> +3.9024761E-01 </wgt>
<wgt id='1964'> +3.9326347E-01 </wgt>
<wgt id='1965'> +3.9330789E-01 </wgt>
<wgt id='1966'> +3.9242545E-01 </wgt>
<wgt id='1967'> +3.8997553E-01 </wgt>
<wgt id='1968'> +3.8449090E-01 </wgt>
<wgt id='1969'> +3.9335985E-01 </wgt>
<wgt id='1970'> +3.9586589E-01 </wgt>
<wgt id='1971'> +3.9108907E-01 </wgt>
<wgt id='1972'> +3.8513394E-01 </wgt>
<wgt id='1973'> +3.9916196E-01 </wgt>
<wgt id='1974'> +3.9281554E-01 </wgt>
<wgt id='1975'> +3.7463647E-01 </wgt>
<wgt id='1976'> +3.9023063E-01 </wgt>
<wgt id='1977'> +3.9126356E-01 </wgt>
<wgt id='1978'> +3.8304717E-01 </wgt>
<wgt id='1979'> +4.0010396E-01 </wgt>
<wgt id='1980'> +3.9095053E-01 </wgt>
<wgt id='1981'> +3.8853850E-01 </wgt>
<wgt id='1982'> +3.8144728E-01 </wgt>
<wgt id='1983'> +3.6308583E-01 </wgt>
<wgt id='1984'> +3.9333090E-01 </wgt>
<wgt id='1985'> +3.8376200E-01 </wgt>
<wgt id='1986'> +4.3634085E-01 </wgt>
<wgt id='1987'> +3.8644174E-01 </wgt>
<wgt id='1988'> +3.8245519E-01 </wgt>
<wgt id='1989'> +3.9310489E-01 </wgt>
<wgt id='1990'> +3.9935803E-01 </wgt>
<wgt id='1991'> +3.8985172E-01 </wgt>
<wgt id='1992'> +3.9633368E-01 </wgt>
<wgt id='1993'> +3.9050600E-01 </wgt>
<wgt id='1994'> +3.9109854E-01 </wgt>
<wgt id='1995'> +3.9665379E-01 </wgt>
<wgt id='1996'> +3.8769616E-01 </wgt>
<wgt id='1997'> +4.0308287E-01 </wgt>
<wgt id='1998'> +3.9751424E-01 </wgt>
<wgt id='1999'> +3.9245530E-01 </wgt>
<wgt id='2000'> +3.9494599E-01 </wgt>
<wgt id='2001'> +3.9267461E-01 </wgt>
<wgt id='2002'> +4.0121570E-01 </wgt>
<wgt id='2003'> +3.8961663E-01 </wgt>
<wgt id='2004'> +3.8888202E-01 </wgt>
<wgt id='2005'> +3.8522303E-01 </wgt>
<wgt id='2006'> +3.9607218E-01 </wgt>
<wgt id='2007'> +3.9438963E-01 </wgt>
<wgt id='2008'> +3.9171455E-01 </wgt>
<wgt id='2009'> +3.8573047E-01 </wgt>
<wgt id='2010'> +3.9450534E-01 </wgt>
<wgt id='2011'> +3.9946724E-01 </wgt>
<wgt id='2012'> +3.8740719E-01 </wgt>
<wgt id='2013'> +3.9781845E-01 </wgt>
<wgt id='2014'> +3.6805248E-01 </wgt>
<wgt id='2015'> +3.9531969E-01 </wgt>
<wgt id='2016'> +3.8090417E-01 </wgt>
<wgt id='2017'> +3.9690948E-01 </wgt>
<wgt id='2018'> +3.9655340E-01 </wgt>
<wgt id='2019'> +3.7216238E-01 </wgt>
<wgt id='2020'> +3.9120103E-01 </wgt>
<wgt id='2021'> +3.9348546E-01 </wgt>
<wgt id='2022'> +3.9330276E-01 </wgt>
</rwgt>
</event>
<event>
13      1 +3.9556008E-01 2.13365600e+02 7.81860800e-03 1.25991200e-01
        2 -1    0    0  501    0 +0.0000000000e+00 +0.0000000000e+00 +2.0964169922e+02 2.0964169923e+02 2.5500000000e-03 0.0000e+00 -1.0000e+00
       21 -1    0    0  502  503 +0.0000000000e+00 +0.0000000000e+00 -7.2562029428e+02 7.2562029428e+02 0.0000000000e+00 0.0000e+00 -1.0000e+00
  8000001  2    1    2  502    0 +6.3014849427e+01 -2.2558887140e+01 -4.8063968347e+02 7.7168272140e+02 5.9999995213e+02 0.0000e+00 0.0000e+00
        1  1    1    2  501    0 +6.5990367917e+00 -7.8920932187e+00 +4.8939949875e+01 5.0009510507e+01 5.0400000000e-03 0.0000e+00 -1.0000e+00
       -5  1    1    2    0  503 -6.9613886219e+01 +3.0450980359e+01 -8.4278861466e+01 1.1356976160e+02 4.6700000000e+00 0.0000e+00 1.0000e+00
        6  2    3    3  502    0 +1.9008360488e+02 +2.0490589619e+02 -2.4790344778e+02 4.1141550387e+02 1.7230320445e+02 0.0000e+00 0.0000e+00
        5  1    6    6  502    0 +1.4298731255e+02 +1.0187795128e+02 -1.9530939849e+02 2.6266339400e+02 4.6700000000e+00 0.0000e+00 -1.0000e+00
       24  2    6    6    0    0 +4.7096292335e+01 +1.0302794491e+02 -5.2594049291e+01 1.4875210987e+02 8.0797512253e+01 0.0000e+00 0.0000e+00
       14  1    8    8    0    0 +1.9590456061e+01 +1.0451191264e+02 -5.7329017292e+01 1.2080207811e+02 0.0000000000e+00 0.0000e+00 -1.0000e+00
      -13  1    8    8    0    0 +2.7505836274e+01 -1.4839677316e+00 +4.7349680007e+00 2.7950031759e+01 1.0566000000e-01 0.0000e+00 1.0000e+00
       23  2    3    3    0    0 -1.2706875546e+02 -2.2746478333e+02 -2.3273623569e+02 3.6026721754e+02 8.7975089438e+01 0.0000e+00 0.0000e+00
        1  1   11   11  504    0 -8.5619213602e+01 -2.1455092055e+02 -1.8699924192e+02 2.9720609642e+02 5.0400000000e-03 0.0000e+00 -1.0000e+00
       -1  1   11   11    0  504 -4.1449541855e+01 -1.2913862777e+01 -4.5736993766e+01 6.3061121112e+01 5.0400000000e-03 0.0000e+00 1.0000e+00
<mgrwt>
<rscale>  1 0.46850791e+02</rscale>
<asrwt>0</asrwt>
<pdfrwt beam="1">  1       21 0.11163389e+00 0.21336562e+03</pdfrwt>
<pdfrwt beam="2">  1        2 0.32252569e-01 0.10287490e+02</pdfrwt>
<totfact> 0.12079918e+03</totfact>
</mgrwt>
<rwgt>
<wgt id='1001'> +3.9556008E-01 </wgt>
<wgt id='1002'> +2.6817536E-01 </wgt>
<wgt id='1003'> +2.6816638E-01 </wgt>
<wgt id='1004'> +3.0908495E-01 </wgt>
<wgt id='1005'> +2.6029654E-01 </wgt>
<wgt id='1006'> +3.5218953E-01 </wgt>
<wgt id='1007'> +2.4779997E-01 </wgt>
<wgt id='1008'> +2.4779207E-01 </wgt>
<wgt id='1009'> +2.8357539E-01 </wgt>
<wgt id='1010'> +2.4085607E-01 </wgt>
<wgt id='1011'> +4.5165306E-01 </wgt>
<wgt id='1012'> +2.9230013E-01 </wgt>
<wgt id='1013'> +2.9228979E-01 </wgt>
<wgt id='1014'> +3.3979088E-01 </wgt>
<wgt id='1015'> +2.8324012E-01 </wgt>
<wgt id='1016'> +3.8309517E-01 </wgt>
<wgt id='1017'> +2.5414952E-01 </wgt>
<wgt id='1018'> +2.5414117E-01 </wgt>
<wgt id='1019'> +2.9228979E-01 </wgt>
<wgt id='1020'> +2.4681910E-01 </wgt>
<wgt id='1021'> +3.4109135E-01 </wgt>
<wgt id='1022'> +2.3483978E-01 </wgt>
<wgt id='1023'> +2.3483244E-01 </wgt>
<wgt id='1024'> +2.6816638E-01 </wgt>
<wgt id='1025'> +2.2838521E-01 </wgt>
<wgt id='1026'> +4.3742056E-01 </wgt>
<wgt id='1027'> +2.7701255E-01 </wgt>
<wgt id='1028'> +2.7700292E-01 </wgt>
<wgt id='1029'> +3.2132721E-01 </wgt>
<wgt id='1030'> +2.6857474E-01 </wgt>
<wgt id='1031'> +4.0371842E-01 </wgt>
<wgt id='1032'> +2.8358505E-01 </wgt>
<wgt id='1033'> +2.8357539E-01 </wgt>
<wgt id='1034'> +3.2760399E-01 </wgt>
<wgt id='1035'> +2.7512017E-01 </wgt>
<wgt id='1036'> +3.5945337E-01 </wgt>
<wgt id='1037'> +2.6203887E-01 </wgt>
<wgt id='1038'> +2.6203036E-01 </wgt>
<wgt id='1039'> +3.0056599E-01 </wgt>
<wgt id='1040'> +2.5457258E-01 </wgt>
<wgt id='1041'> +4.6096831E-01 </wgt>
<wgt id='1042'> +3.0909608E-01 </wgt>
<wgt id='1043'> +3.0908495E-01 </wgt>
<wgt id='1044'> +3.6014965E-01 </wgt>
<wgt id='1045'> +2.9937038E-01 </wgt>
<wgt id='1046'> +3.9556008E-01 </wgt>
<wgt id='1047'> +3.9556008E-01 </wgt>
<wgt id='1048'> +3.9556008E-01 </wgt>
<wgt id='1049'> +3.9432716E-01 </wgt>
<wgt id='1050'> +3.9563307E-01 </wgt>
<wgt id='1051'> +3.9564850E-01 </wgt>
<wgt id='1052'> +3.9603688E-01 </wgt>
<wgt id='1053'> +3.9424738E-01 </wgt>
<wgt id='1054'> +3.9476798E-01 </wgt>
<wgt id='1055'> +3.9533562E-01 </wgt>
<wgt id='1056'> +3.9362133E-01 </wgt>
<wgt id='1057'> +3.9775592E-01 </wgt>
<wgt id='1058'> +3.9495522E-01 </wgt>
<wgt id='1059'> +3.9710711E-01 </wgt>
<wgt id='1060'> +3.9530629E-01 </wgt>
<wgt id='1061'> +3.9603542E-01 </wgt>
<wgt id='1062'> +3.9557004E-01 </wgt>
<wgt id='1063'> +3.9616686E-01 </wgt>
<wgt id='1064'> +3.9554278E-01 </wgt>
<wgt id='1065'> +3.9615131E-01 </wgt>
<wgt id='1066'> +3.9284064E-01 </wgt>
<wgt id='1067'> +3.9225734E-01 </wgt>
<wgt id='1068'> +3.9549633E-01 </wgt>
<wgt id='1069'> +3.9522926E-01 </wgt>
<wgt id='1070'> +3.9733414E-01 </wgt>
<wgt id='1071'> +3.9618859E-01 </wgt>
<wgt id='1072'> +3.9228999E-01 </wgt>
<wgt id='1073'> +3.9546190E-01 </wgt>
<wgt id='1074'> +3.9449261E-01 </wgt>
<wgt id='1075'> +3.9819340E-01 </wgt>
<wgt id='1076'> +3.9627727E-01 </wgt>
<wgt id='1077'> +3.9591051E-01 </wgt>
<wgt id='1078'> +3.9679432E-01 </wgt>
<wgt id='1079'> +3.9507962E-01 </wgt>
<wgt id='1080'> +3.9459332E-01 </wgt>
<wgt id='1081'> +3.9574196E-01 </wgt>
<wgt id='1082'> +3.9450875E-01 </wgt>
<wgt id='1083'> +3.9681368E-01 </wgt>
<wgt id='1084'> +3.9682804E-01 </wgt>
<wgt id='1085'> +3.9453566E-01 </wgt>
<wgt id='1086'> +3.9569790E-01 </wgt>
<wgt id='1087'> +3.9637656E-01 </wgt>
<wgt id='1088'> +3.9567125E-01 </wgt>
<wgt id='1089'> +3.9645295E-01 </wgt>
<wgt id='1090'> +3.9577933E-01 </wgt>
<wgt id='1091'> +3.9364704E-01 </wgt>
<wgt id='1092'> +3.9657096E-01 </wgt>
<wgt id='1093'> +3.9574575E-01 </wgt>
<wgt id='1094'> +3.9622112E-01 </wgt>
<wgt id='1095'> +3.9516341E-01 </wgt>
<wgt id='1096'> +3.9571363E-01 </wgt>
<wgt id='1097'> +3.9493959E-01 </wgt>
<wgt id='1098'> +3.9556294E-01 </wgt>
<wgt id='1099'> +3.9585951E-01 </wgt>
<wgt id='1100'> +3.9642720E-01 </wgt>
<wgt id='1101'> +3.9496568E-01 </wgt>
<wgt id='1102'> +3.9541079E-01 </wgt>
<wgt id='1103'> +3.9529560E-01 </wgt>
<wgt id='1104'> +3.9656616E-01 </wgt>
<wgt id='1105'> +3.9587131E-01 </wgt>
<wgt id='1106'> +3.9579879E-01 </wgt>
<wgt id='1107'> +3.9515237E-01 </wgt>
<wgt id='1108'> +3.9548075E-01 </wgt>
<wgt id='1109'> +3.9561341E-01 </wgt>
<wgt id='1110'> +3.9524041E-01 </wgt>
<wgt id='1111'> +3.9573468E-01 </wgt>
<wgt id='1112'> +3.9581457E-01 </wgt>
<wgt id='1113'> +3.9535193E-01 </wgt>
<wgt id='1114'> +3.9555606E-01 </wgt>
<wgt id='1115'> +3.9530781E-01 </wgt>
<wgt id='1116'> +3.9585744E-01 </wgt>
<wgt id='1117'> +3.9572000E-01 </wgt>
<wgt id='1118'> +3.9503369E-01 </wgt>
<wgt id='1119'> +3.9557986E-01 </wgt>
<wgt id='1120'> +3.9613264E-01 </wgt>
<wgt id='1121'> +3.9580700E-01 </wgt>
<wgt id='1122'> +3.9605496E-01 </wgt>
<wgt id='1123'> +3.9533242E-01 </wgt>
<wgt id='1124'> +3.9545392E-01 </wgt>
<wgt id='1125'> +3.9579366E-01 </wgt>
<wgt id='1126'> +3.9581006E-01 </wgt>
<wgt id='1127'> +3.9509875E-01 </wgt>
<wgt id='1128'> +3.9607369E-01 </wgt>
<wgt id='1129'> +3.9567614E-01 </wgt>
<wgt id='1130'> +3.9545584E-01 </wgt>
<wgt id='1131'> +3.9593331E-01 </wgt>
<wgt id='1132'> +3.9567186E-01 </wgt>
<wgt id='1133'> +3.9574202E-01 </wgt>
<wgt id='1134'> +3.9544521E-01 </wgt>
<wgt id='1135'> +3.9620793E-01 </wgt>
<wgt id='1136'> +3.9540587E-01 </wgt>
<wgt id='1137'> +3.9557272E-01 </wgt>
<wgt id='1138'> +3.9569251E-01 </wgt>
<wgt id='1139'> +3.9572073E-01 </wgt>
<wgt id='1140'> +3.9578798E-01 </wgt>
<wgt id='1141'> +3.9575481E-01 </wgt>
<wgt id='1142'> +3.9569670E-01 </wgt>
<wgt id='1143'> +3.9556157E-01 </wgt>
<wgt id='1144'> +3.9570410E-01 </wgt>
<wgt id='1145'> +3.9566414E-01 </wgt>
<wgt id='1146'> +3.9562637E-01 </wgt>
<wgt id='1147'> +3.9544647E-01 </wgt>
<wgt id='1148'> +3.9556008E-01 </wgt>
<wgt id='1149'> +3.9705277E-01 </wgt>
<wgt id='1150'> +4.1675825E-01 </wgt>
<wgt id='1151'> +3.9366542E-01 </wgt>
<wgt id='1152'> +3.9486109E-01 </wgt>
<wgt id='1153'> +3.9361667E-01 </wgt>
<wgt id='1154'> +3.9777683E-01 </wgt>
<wgt id='1155'> +4.0506027E-01 </wgt>
<wgt id='1156'> +3.9486520E-01 </wgt>
<wgt id='1157'> +3.8966821E-01 </wgt>
<wgt id='1158'> +3.8160633E-01 </wgt>
<wgt id='1159'> +3.9918797E-01 </wgt>
<wgt id='1160'> +3.9348555E-01 </wgt>
<wgt id='1161'> +3.9097575E-01 </wgt>
<wgt id='1162'> +3.8881285E-01 </wgt>
<wgt id='1163'> +4.0275306E-01 </wgt>
<wgt id='1164'> +3.8785541E-01 </wgt>
<wgt id='1165'> +3.9792292E-01 </wgt>
<wgt id='1166'> +4.0334251E-01 </wgt>
<wgt id='1167'> +3.9243424E-01 </wgt>
<wgt id='1168'> +3.9694556E-01 </wgt>
<wgt id='1169'> +3.8555860E-01 </wgt>
<wgt id='1170'> +3.8666769E-01 </wgt>
<wgt id='1171'> +3.9289811E-01 </wgt>
<wgt id='1172'> +3.9666212E-01 </wgt>
<wgt id='1173'> +4.0245553E-01 </wgt>
<wgt id='1174'> +3.8895635E-01 </wgt>
<wgt id='1175'> +4.0238624E-01 </wgt>
<wgt id='1176'> +3.9941391E-01 </wgt>
<wgt id='1177'> +3.9193988E-01 </wgt>
<wgt id='1178'> +4.0590287E-01 </wgt>
<wgt id='1179'> +3.8701669E-01 </wgt>
<wgt id='1180'> +3.9861352E-01 </wgt>
<wgt id='1181'> +3.7984296E-01 </wgt>
<wgt id='1182'> +3.9411446E-01 </wgt>
<wgt id='1183'> +4.0432339E-01 </wgt>
<wgt id='1184'> +3.9672541E-01 </wgt>
<wgt id='1185'> +3.9043881E-01 </wgt>
<wgt id='1186'> +3.8976872E-01 </wgt>
<wgt id='1187'> +3.9604661E-01 </wgt>
<wgt id='1188'> +3.8906804E-01 </wgt>
<wgt id='1189'> +4.0490684E-01 </wgt>
<wgt id='1190'> +3.9613922E-01 </wgt>
<wgt id='1191'> +4.0739733E-01 </wgt>
<wgt id='1192'> +4.0427304E-01 </wgt>
<wgt id='1193'> +4.0747955E-01 </wgt>
<wgt id='1194'> +4.0423608E-01 </wgt>
<wgt id='1195'> +4.0809090E-01 </wgt>
<wgt id='1196'> +4.0216408E-01 </wgt>
<wgt id='1197'> +4.0327419E-01 </wgt>
<wgt id='1198'> +3.9467388E-01 </wgt>
<wgt id='1199'> +4.0176656E-01 </wgt>
<wgt id='1200'> +3.9842380E-01 </wgt>
<wgt id='1201'> +3.8879750E-01 </wgt>
<wgt id='1202'> +4.0068351E-01 </wgt>
<wgt id='1203'> +3.9992554E-01 </wgt>
<wgt id='1204'> +4.1224807E-01 </wgt>
<wgt id='1205'> +3.9404209E-01 </wgt>
<wgt id='1206'> +3.9862208E-01 </wgt>
<wgt id='1207'> +3.9547754E-01 </wgt>
<wgt id='1208'> +3.8420539E-01 </wgt>
<wgt id='1209'> +3.9860679E-01 </wgt>
<wgt id='1210'> +3.9326193E-01 </wgt>
<wgt id='1211'> +4.0055399E-01 </wgt>
<wgt id='1212'> +4.0650615E-01 </wgt>
<wgt id='1213'> +4.0353319E-01 </wgt>
<wgt id='1214'> +3.9219598E-01 </wgt>
<wgt id='1215'> +4.0217113E-01 </wgt>
<wgt id='1216'> +4.1336065E-01 </wgt>
<wgt id='1217'> +3.9299495E-01 </wgt>
<wgt id='1218'> +4.0084789E-01 </wgt>
<wgt id='1219'> +4.0808907E-01 </wgt>
<wgt id='1220'> +3.8500867E-01 </wgt>
<wgt id='1221'> +4.0933361E-01 </wgt>
<wgt id='1222'> +3.7268274E-01 </wgt>
<wgt id='1223'> +3.8006783E-01 </wgt>
<wgt id='1224'> +3.9433051E-01 </wgt>
<wgt id='1225'> +4.0872535E-01 </wgt>
<wgt id='1226'> +3.9647191E-01 </wgt>
<wgt id='1227'> +3.8591942E-01 </wgt>
<wgt id='1228'> +3.9116832E-01 </wgt>
<wgt id='1229'> +4.1556653E-01 </wgt>
<wgt id='1230'> +4.0314755E-01 </wgt>
<wgt id='1231'> +3.9792292E-01 </wgt>
<wgt id='1232'> +4.0221854E-01 </wgt>
<wgt id='1233'> +3.8966087E-01 </wgt>
<wgt id='1234'> +3.8664783E-01 </wgt>
<wgt id='1235'> +4.1345003E-01 </wgt>
<wgt id='1236'> +3.8613803E-01 </wgt>
<wgt id='1237'> +4.0019422E-01 </wgt>
<wgt id='1238'> +3.8947508E-01 </wgt>
<wgt id='1239'> +4.0150307E-01 </wgt>
<wgt id='1240'> +4.0456230E-01 </wgt>
<wgt id='1241'> +3.9331738E-01 </wgt>
<wgt id='1242'> +3.9296186E-01 </wgt>
<wgt id='1243'> +4.0600871E-01 </wgt>
<wgt id='1244'> +3.9264837E-01 </wgt>
<wgt id='1245'> +3.9284784E-01 </wgt>
<wgt id='1246'> +4.1656775E-01 </wgt>
<wgt id='1247'> +3.9408420E-01 </wgt>
<wgt id='1248'> +3.9164680E-01 </wgt>
<wgt id='1249'> +3.9177900E-01 </wgt>
<wgt id='1250'> +3.9301967E-01 </wgt>
<wgt id='1251'> +3.9027091E-01 </wgt>
<wgt id='1252'> +4.1294347E-01 </wgt>
<wgt id='1253'> +4.0472211E-01 </wgt>
<wgt id='1254'> +4.1970532E-01 </wgt>
<wgt id='1255'> +4.0882676E-01 </wgt>
<wgt id='1256'> +4.0846824E-01 </wgt>
<wgt id='1257'> +4.0903002E-01 </wgt>
<wgt id='1258'> +4.0814423E-01 </wgt>
<wgt id='1259'> +4.0918135E-01 </wgt>
<wgt id='1260'> +4.0933484E-01 </wgt>
<wgt id='1261'> +4.0814449E-01 </wgt>
<wgt id='1262'> +4.0928789E-01 </wgt>
<wgt id='1263'> +4.0853132E-01 </wgt>
<wgt id='1264'> +4.0924117E-01 </wgt>
<wgt id='1265'> +4.0854912E-01 </wgt>
<wgt id='1266'> +4.0978926E-01 </wgt>
<wgt id='1267'> +4.0787407E-01 </wgt>
<wgt id='1268'> +4.1100632E-01 </wgt>
<wgt id='1269'> +4.0658860E-01 </wgt>
<wgt id='1270'> +4.0405720E-01 </wgt>
<wgt id='1271'> +4.1406470E-01 </wgt>
<wgt id='1272'> +4.0694308E-01 </wgt>
<wgt id='1273'> +4.1026423E-01 </wgt>
<wgt id='1274'> +4.0906162E-01 </wgt>
<wgt id='1275'> +4.0850389E-01 </wgt>
<wgt id='1276'> +4.1252717E-01 </wgt>
<wgt id='1277'> +4.0485631E-01 </wgt>
<wgt id='1278'> +4.0702696E-01 </wgt>
<wgt id='1279'> +4.1015437E-01 </wgt>
<wgt id='1280'> +4.0819237E-01 </wgt>
<wgt id='1281'> +4.1073549E-01 </wgt>
<wgt id='1282'> +4.0817702E-01 </wgt>
<wgt id='1283'> +4.0849984E-01 </wgt>
<wgt id='1284'> +4.0938583E-01 </wgt>
<wgt id='1285'> +4.0821497E-01 </wgt>
<wgt id='1286'> +4.0744664E-01 </wgt>
<wgt id='1287'> +4.0893982E-01 </wgt>
<wgt id='1288'> +4.0955484E-01 </wgt>
<wgt id='1289'> +4.0870383E-01 </wgt>
<wgt id='1290'> +4.0908684E-01 </wgt>
<wgt id='1291'> +4.0874076E-01 </wgt>
<wgt id='1292'> +4.1166564E-01 </wgt>
<wgt id='1293'> +4.0525945E-01 </wgt>
<wgt id='1294'> +4.0792201E-01 </wgt>
<wgt id='1295'> +4.0775833E-01 </wgt>
<wgt id='1296'> +4.0064288E-01 </wgt>
<wgt id='1297'> +4.0173193E-01 </wgt>
<wgt id='1298'> +3.9974014E-01 </wgt>
<wgt id='1299'> +4.0176088E-01 </wgt>
<wgt id='1300'> +3.9938313E-01 </wgt>
<wgt id='1301'> +3.9992339E-01 </wgt>
<wgt id='1302'> +4.0169439E-01 </wgt>
<wgt id='1303'> +4.0038967E-01 </wgt>
<wgt id='1304'> +4.0080979E-01 </wgt>
<wgt id='1305'> +4.0070497E-01 </wgt>
<wgt id='1306'> +4.0054528E-01 </wgt>
<wgt id='1307'> +4.0100181E-01 </wgt>
<wgt id='1308'> +4.0040383E-01 </wgt>
<wgt id='1309'> +4.0058591E-01 </wgt>
<wgt id='1310'> +4.0072702E-01 </wgt>
<wgt id='1311'> +4.0128819E-01 </wgt>
<wgt id='1312'> +4.0038399E-01 </wgt>
<wgt id='1313'> +3.9749193E-01 </wgt>
<wgt id='1314'> +4.0447484E-01 </wgt>
<wgt id='1315'> +4.0168105E-01 </wgt>
<wgt id='1316'> +3.9963774E-01 </wgt>
<wgt id='1317'> +4.0376741E-01 </wgt>
<wgt id='1318'> +3.9537864E-01 </wgt>
<wgt id='1319'> +3.9594246E-01 </wgt>
<wgt id='1320'> +4.0360952E-01 </wgt>
<wgt id='1321'> +3.9826257E-01 </wgt>
<wgt id='1322'> +4.0177675E-01 </wgt>
<wgt id='1323'> +3.9960943E-01 </wgt>
<wgt id='1324'> +4.0173108E-01 </wgt>
<wgt id='1325'> +4.0014768E-01 </wgt>
<wgt id='1326'> +4.0067576E-01 </wgt>
<wgt id='1327'> +4.0058856E-01 </wgt>
<wgt id='1328'> +4.0066426E-01 </wgt>
<wgt id='1329'> +4.0058909E-01 </wgt>
<wgt id='1330'> +4.0073669E-01 </wgt>
<wgt id='1331'> +3.9846192E-01 </wgt>
<wgt id='1332'> +4.0148117E-01 </wgt>
<wgt id='1333'> +4.0078317E-01 </wgt>
<wgt id='1334'> +4.0205303E-01 </wgt>
<wgt id='1335'> +4.0051263E-01 </wgt>
<wgt id='1336'> +4.0065016E-01 </wgt>
<wgt id='1337'> +4.0064288E-01 </wgt>
<wgt id='1338'> +4.0025989E-01 </wgt>
<wgt id='1339'> +4.0037491E-01 </wgt>
<wgt id='1340'> +4.0046123E-01 </wgt>
<wgt id='1341'> +4.0060510E-01 </wgt>
<wgt id='1342'> +4.0064955E-01 </wgt>
<wgt id='1343'> +4.0070023E-01 </wgt>
<wgt id='1344'> +3.8825002E-01 </wgt>
<wgt id='1345'> +3.8950823E-01 </wgt>
<wgt id='1346'> +3.8700341E-01 </wgt>
<wgt id='1347'> +3.8742973E-01 </wgt>
<wgt id='1348'> +3.8884064E-01 </wgt>
<wgt id='1349'> +3.8764557E-01 </wgt>
<wgt id='1350'> +3.8876325E-01 </wgt>
<wgt id='1351'> +3.8822497E-01 </wgt>
<wgt id='1352'> +3.8827920E-01 </wgt>
<wgt id='1353'> +3.8946868E-01 </wgt>
<wgt id='1354'> +3.8738689E-01 </wgt>
<wgt id='1355'> +3.8838434E-01 </wgt>
<wgt id='1356'> +3.8814954E-01 </wgt>
<wgt id='1357'> +3.8849994E-01 </wgt>
<wgt id='1358'> +3.8809572E-01 </wgt>
<wgt id='1359'> +3.8787440E-01 </wgt>
<wgt id='1360'> +3.8913570E-01 </wgt>
<wgt id='1361'> +3.8275278E-01 </wgt>
<wgt id='1362'> +3.9315565E-01 </wgt>
<wgt id='1363'> +3.8670593E-01 </wgt>
<wgt id='1364'> +3.9015616E-01 </wgt>
<wgt id='1365'> +3.8520078E-01 </wgt>
<wgt id='1366'> +3.8952908E-01 </wgt>
<wgt id='1367'> +3.8580124E-01 </wgt>
<wgt id='1368'> +3.8939138E-01 </wgt>
<wgt id='1369'> +3.9055674E-01 </wgt>
<wgt id='1370'> +3.8595443E-01 </wgt>
<wgt id='1371'> +3.8827417E-01 </wgt>
<wgt id='1372'> +3.8821158E-01 </wgt>
<wgt id='1373'> +3.8917501E-01 </wgt>
<wgt id='1374'> +3.8866571E-01 </wgt>
<wgt id='1375'> +3.8792485E-01 </wgt>
<wgt id='1376'> +3.8839707E-01 </wgt>
<wgt id='1377'> +3.8834602E-01 </wgt>
<wgt id='1378'> +3.8833006E-01 </wgt>
<wgt id='1379'> +3.8961278E-01 </wgt>
<wgt id='1380'> +3.8607416E-01 </wgt>
<wgt id='1381'> +3.8720541E-01 </wgt>
<wgt id='1382'> +3.8994355E-01 </wgt>
<wgt id='1383'> +3.8814651E-01 </wgt>
<wgt id='1384'> +3.8857983E-01 </wgt>
<wgt id='1385'> +3.8825002E-01 </wgt>
<wgt id='1386'> +3.8797928E-01 </wgt>
<wgt id='1387'> +3.8807845E-01 </wgt>
<wgt id='1388'> +3.8812007E-01 </wgt>
<wgt id='1389'> +3.8818426E-01 </wgt>
<wgt id='1390'> +3.8818577E-01 </wgt>
<wgt id='1391'> +3.8814660E-01 </wgt>
<wgt id='1392'> +4.2192763E-01 </wgt>
<wgt id='1393'> +4.2098887E-01 </wgt>
<wgt id='1394'> +4.2293106E-01 </wgt>
<wgt id='1395'> +4.2153116E-01 </wgt>
<wgt id='1396'> +4.2221061E-01 </wgt>
<wgt id='1397'> +4.2203746E-01 </wgt>
<wgt id='1398'> +4.2182182E-01 </wgt>
<wgt id='1399'> +4.2119821E-01 </wgt>
<wgt id='1400'> +4.2282749E-01 </wgt>
<wgt id='1401'> +4.2101875E-01 </wgt>
<wgt id='1402'> +4.2306264E-01 </wgt>
<wgt id='1403'> +4.2173005E-01 </wgt>
<wgt id='1404'> +4.2234371E-01 </wgt>
<wgt id='1405'> +4.2152717E-01 </wgt>
<wgt id='1406'> +4.2247995E-01 </wgt>
<wgt id='1407'> +4.2222403E-01 </wgt>
<wgt id='1408'> +4.2172883E-01 </wgt>
<wgt id='1409'> +4.2189860E-01 </wgt>
<wgt id='1410'> +4.2192929E-01 </wgt>
<wgt id='1411'> +4.1996310E-01 </wgt>
<wgt id='1412'> +4.2342463E-01 </wgt>
<wgt id='1413'> +4.2112977E-01 </wgt>
<wgt id='1414'> +4.2276449E-01 </wgt>
<wgt id='1415'> +4.2299455E-01 </wgt>
<wgt id='1416'> +4.2071370E-01 </wgt>
<wgt id='1417'> +4.1803244E-01 </wgt>
<wgt id='1418'> +4.2664914E-01 </wgt>
<wgt id='1419'> +4.2288763E-01 </wgt>
<wgt id='1420'> +4.2086765E-01 </wgt>
<wgt id='1421'> +4.1954916E-01 </wgt>
<wgt id='1422'> +4.2474534E-01 </wgt>
<wgt id='1423'> +4.1514237E-01 </wgt>
<wgt id='1424'> +4.2736712E-01 </wgt>
<wgt id='1425'> +4.2210419E-01 </wgt>
<wgt id='1426'> +4.2172283E-01 </wgt>
<wgt id='1427'> +4.2112523E-01 </wgt>
<wgt id='1428'> +4.2413160E-01 </wgt>
<wgt id='1429'> +4.2111320E-01 </wgt>
<wgt id='1430'> +4.2260093E-01 </wgt>
<wgt id='1431'> +4.2108789E-01 </wgt>
<wgt id='1432'> +4.2273572E-01 </wgt>
<wgt id='1433'> +4.1899256E-01 </wgt>
<wgt id='1434'> +4.2649187E-01 </wgt>
<wgt id='1435'> +4.2263367E-01 </wgt>
<wgt id='1436'> +4.2134844E-01 </wgt>
<wgt id='1437'> +4.2103147E-01 </wgt>
<wgt id='1438'> +4.2456165E-01 </wgt>
<wgt id='1439'> +4.2331058E-01 </wgt>
<wgt id='1440'> +4.2123730E-01 </wgt>
<wgt id='1441'> +4.2119556E-01 </wgt>
<wgt id='1442'> +4.2201454E-01 </wgt>
<wgt id='1443'> +4.1425177E-01 </wgt>
<wgt id='1444'> +4.1332410E-01 </wgt>
<wgt id='1445'> +4.1524503E-01 </wgt>
<wgt id='1446'> +4.1384179E-01 </wgt>
<wgt id='1447'> +4.1453253E-01 </wgt>
<wgt id='1448'> +4.1442899E-01 </wgt>
<wgt id='1449'> +4.1408966E-01 </wgt>
<wgt id='1450'> +4.1352107E-01 </wgt>
<wgt id='1451'> +4.1506050E-01 </wgt>
<wgt id='1452'> +4.1332946E-01 </wgt>
<wgt id='1453'> +4.1515291E-01 </wgt>
<wgt id='1454'> +4.1399137E-01 </wgt>
<wgt id='1455'> +4.1482995E-01 </wgt>
<wgt id='1456'> +4.1380136E-01 </wgt>
<wgt id='1457'> +4.1505281E-01 </wgt>
<wgt id='1458'> +4.1460520E-01 </wgt>
<wgt id='1459'> +4.1404962E-01 </wgt>
<wgt id='1460'> +4.1380686E-01 </wgt>
<wgt id='1461'> +4.1473617E-01 </wgt>
<wgt id='1462'> +4.1238673E-01 </wgt>
<wgt id='1463'> +4.1586427E-01 </wgt>
<wgt id='1464'> +4.1365213E-01 </wgt>
<wgt id='1465'> +4.1504037E-01 </wgt>
<wgt id='1466'> +4.1628049E-01 </wgt>
<wgt id='1467'> +4.1274257E-01 </wgt>
<wgt id='1468'> +4.1914971E-01 </wgt>
<wgt id='1469'> +4.0940360E-01 </wgt>
<wgt id='1470'> +4.1529410E-01 </wgt>
<wgt id='1471'> +4.1333051E-01 </wgt>
<wgt id='1472'> +4.1256043E-01 </wgt>
<wgt id='1473'> +4.1627947E-01 </wgt>
<wgt id='1474'> +4.0926901E-01 </wgt>
<wgt id='1475'> +4.2014312E-01 </wgt>
<wgt id='1476'> +4.1538104E-01 </wgt>
<wgt id='1477'> +4.1324409E-01 </wgt>
<wgt id='1478'> +4.1355048E-01 </wgt>
<wgt id='1479'> +4.1640584E-01 </wgt>
<wgt id='1480'> +4.1349025E-01 </wgt>
<wgt id='1481'> +4.1481003E-01 </wgt>
<wgt id='1482'> +4.1342962E-01 </wgt>
<wgt id='1483'> +4.1516840E-01 </wgt>
<wgt id='1484'> +4.1124857E-01 </wgt>
<wgt id='1485'> +4.1855750E-01 </wgt>
<wgt id='1486'> +4.1529597E-01 </wgt>
<wgt id='1487'> +4.1382454E-01 </wgt>
<wgt id='1488'> +4.1325455E-01 </wgt>
<wgt id='1489'> +4.1700418E-01 </wgt>
<wgt id='1490'> +4.1566722E-01 </wgt>
<wgt id='1491'> +4.1378601E-01 </wgt>
<wgt id='1492'> +4.1351687E-01 </wgt>
<wgt id='1493'> +4.1434133E-01 </wgt>
<wgt id='1494'> +4.0566029E-01 </wgt>
<wgt id='1495'> +3.9523575E-01 </wgt>
<wgt id='1496'> +3.9862991E-01 </wgt>
<wgt id='1497'> +4.0228107E-01 </wgt>
<wgt id='1498'> +4.0976696E-01 </wgt>
<wgt id='1499'> +4.0598908E-01 </wgt>
<wgt id='1500'> +4.0514342E-01 </wgt>
<wgt id='1501'> +4.0564151E-01 </wgt>
<wgt id='1502'> +4.0586970E-01 </wgt>
<wgt id='1503'> +4.0598855E-01 </wgt>
<wgt id='1504'> +4.0607150E-01 </wgt>
<wgt id='1505'> +4.0581791E-01 </wgt>
<wgt id='1506'> +4.0551490E-01 </wgt>
<wgt id='1507'> +4.0510745E-01 </wgt>
<wgt id='1508'> +4.0598908E-01 </wgt>
<wgt id='1509'> +4.0600900E-01 </wgt>
<wgt id='1510'> +4.0601051E-01 </wgt>
<wgt id='1511'> +4.0603824E-01 </wgt>
<wgt id='1512'> +4.0620617E-01 </wgt>
<wgt id='1513'> +4.0437302E-01 </wgt>
<wgt id='1514'> +4.0336957E-01 </wgt>
<wgt id='1515'> +4.0566154E-01 </wgt>
<wgt id='1516'> +4.0435674E-01 </wgt>
<wgt id='1517'> +4.0438755E-01 </wgt>
<wgt id='1518'> +4.0396135E-01 </wgt>
<wgt id='1519'> +4.0453769E-01 </wgt>
<wgt id='1520'> +4.0376403E-01 </wgt>
<wgt id='1521'> +4.0497322E-01 </wgt>
<wgt id='1522'> +4.0400530E-01 </wgt>
<wgt id='1523'> +4.0473058E-01 </wgt>
<wgt id='1524'> +4.0582939E-01 </wgt>
<wgt id='1525'> +4.0375736E-01 </wgt>
<wgt id='1526'> +4.0413828E-01 </wgt>
<wgt id='1527'> +4.0465963E-01 </wgt>
<wgt id='1528'> +4.0426902E-01 </wgt>
<wgt id='1529'> +4.0449202E-01 </wgt>
<wgt id='1530'> +4.0261824E-01 </wgt>
<wgt id='1531'> +4.0534715E-01 </wgt>
<wgt id='1532'> +4.0592929E-01 </wgt>
<wgt id='1533'> +4.0225154E-01 </wgt>
<wgt id='1534'> +4.0317732E-01 </wgt>
<wgt id='1535'> +4.0520863E-01 </wgt>
<wgt id='1536'> +4.0404456E-01 </wgt>
<wgt id='1537'> +4.0471060E-01 </wgt>
<wgt id='1538'> +4.0304780E-01 </wgt>
<wgt id='1539'> +4.0740071E-01 </wgt>
<wgt id='1540'> +4.0462734E-01 </wgt>
<wgt id='1541'> +4.0368266E-01 </wgt>
<wgt id='1542'> +4.0638476E-01 </wgt>
<wgt id='1543'> +3.9941916E-01 </wgt>
<wgt id='1544'> +4.0191023E-01 </wgt>
<wgt id='1545'> +4.0973946E-01 </wgt>
<wgt id='1546'> +4.0444149E-01 </wgt>
<wgt id='1547'> +4.0426867E-01 </wgt>
<wgt id='1548'> +4.0551007E-01 </wgt>
<wgt id='1549'> +4.0395599E-01 </wgt>
<wgt id='1550'> +4.0364788E-01 </wgt>
<wgt id='1551'> +4.0532915E-01 </wgt>
<wgt id='1552'> +4.0318204E-01 </wgt>
<wgt id='1553'> +4.0526854E-01 </wgt>
<wgt id='1554'> +4.0671969E-01 </wgt>
<wgt id='1555'> +4.0107777E-01 </wgt>
<wgt id='1556'> +4.0481338E-01 </wgt>
<wgt id='1557'> +4.0102575E-01 </wgt>
<wgt id='1558'> +4.0232385E-01 </wgt>
<wgt id='1559'> +4.0639542E-01 </wgt>
<wgt id='1560'> +4.0671894E-01 </wgt>
<wgt id='1561'> +4.0333392E-01 </wgt>
<wgt id='1562'> +4.0397702E-01 </wgt>
<wgt id='1563'> +4.0451663E-01 </wgt>
<wgt id='1564'> +4.0437302E-01 </wgt>
<wgt id='1565'> +3.9907645E-01 </wgt>
<wgt id='1566'> +4.0906631E-01 </wgt>
<wgt id='1567'> +4.0416312E-01 </wgt>
<wgt id='1568'> +4.0458863E-01 </wgt>
<wgt id='1569'> +4.0476888E-01 </wgt>
<wgt id='1570'> +4.0491855E-01 </wgt>
<wgt id='1571'> +4.0454896E-01 </wgt>
<wgt id='1572'> +4.0445416E-01 </wgt>
<wgt id='1573'> +4.0357950E-01 </wgt>
<wgt id='1574'> +4.0274429E-01 </wgt>
<wgt id='1575'> +4.0224411E-01 </wgt>
<wgt id='1576'> +4.0416312E-01 </wgt>
<wgt id='1577'> +4.0397038E-01 </wgt>
<wgt id='1578'> +4.0389049E-01 </wgt>
<wgt id='1579'> +4.0432182E-01 </wgt>
<wgt id='1580'> +4.0453239E-01 </wgt>
<wgt id='1581'> +3.9948941E-01 </wgt>
<wgt id='1582'> +3.9934943E-01 </wgt>
<wgt id='1583'> +3.9890464E-01 </wgt>
<wgt id='1584'> +3.9915745E-01 </wgt>
<wgt id='1585'> +3.9863236E-01 </wgt>
<wgt id='1586'> +3.9404450E-01 </wgt>
<wgt id='1587'> +4.0047206E-01 </wgt>
<wgt id='1588'> +3.9711521E-01 </wgt>
<wgt id='1589'> +3.9942315E-01 </wgt>
<wgt id='1590'> +4.0132585E-01 </wgt>
<wgt id='1591'> +3.9911842E-01 </wgt>
<wgt id='1592'> +3.9361125E-01 </wgt>
<wgt id='1593'> +3.9915468E-01 </wgt>
<wgt id='1594'> +3.9472162E-01 </wgt>
<wgt id='1595'> +4.0058609E-01 </wgt>
<wgt id='1596'> +4.0053576E-01 </wgt>
<wgt id='1597'> +4.0147371E-01 </wgt>
<wgt id='1598'> +3.9543613E-01 </wgt>
<wgt id='1599'> +3.9817645E-01 </wgt>
<wgt id='1600'> +3.9979684E-01 </wgt>
<wgt id='1601'> +3.9839872E-01 </wgt>
<wgt id='1602'> +3.9949168E-01 </wgt>
<wgt id='1603'> +3.9972697E-01 </wgt>
<wgt id='1604'> +3.9866236E-01 </wgt>
<wgt id='1605'> +4.0012761E-01 </wgt>
<wgt id='1606'> +3.9953472E-01 </wgt>
<wgt id='1607'> +4.0006607E-01 </wgt>
<wgt id='1608'> +3.9794255E-01 </wgt>
<wgt id='1609'> +3.9896779E-01 </wgt>
<wgt id='1610'> +3.9954806E-01 </wgt>
<wgt id='1611'> +4.0053561E-01 </wgt>
<wgt id='1612'> +3.8921745E-01 </wgt>
<wgt id='1613'> +3.8916465E-01 </wgt>
<wgt id='1614'> +3.8928079E-01 </wgt>
<wgt id='1615'> +3.8880965E-01 </wgt>
<wgt id='1616'> +3.9006727E-01 </wgt>
<wgt id='1617'> +3.8990394E-01 </wgt>
<wgt id='1618'> +3.8898492E-01 </wgt>
<wgt id='1619'> +3.8976921E-01 </wgt>
<wgt id='1620'> +3.8932288E-01 </wgt>
<wgt id='1621'> +3.9038240E-01 </wgt>
<wgt id='1622'> +3.8812356E-01 </wgt>
<wgt id='1623'> +3.8807597E-01 </wgt>
<wgt id='1624'> +3.8873317E-01 </wgt>
<wgt id='1625'> +3.8704849E-01 </wgt>
<wgt id='1626'> +3.8971265E-01 </wgt>
<wgt id='1627'> +3.8884366E-01 </wgt>
<wgt id='1628'> +3.9107136E-01 </wgt>
<wgt id='1629'> +3.8848905E-01 </wgt>
<wgt id='1630'> +3.8705097E-01 </wgt>
<wgt id='1631'> +3.8978934E-01 </wgt>
<wgt id='1632'> +3.8723509E-01 </wgt>
<wgt id='1633'> +3.9172993E-01 </wgt>
<wgt id='1634'> +3.8808357E-01 </wgt>
<wgt id='1635'> +3.8737026E-01 </wgt>
<wgt id='1636'> +3.8821924E-01 </wgt>
<wgt id='1637'> +3.8855571E-01 </wgt>
<wgt id='1638'> +3.8653279E-01 </wgt>
<wgt id='1639'> +3.8837526E-01 </wgt>
<wgt id='1640'> +3.8855399E-01 </wgt>
<wgt id='1641'> +3.9116203E-01 </wgt>
<wgt id='1642'> +3.9233458E-01 </wgt>
<wgt id='1643'> +3.8976446E-01 </wgt>
<wgt id='1644'> +3.8995170E-01 </wgt>
<wgt id='1645'> +3.8918034E-01 </wgt>
<wgt id='1646'> +3.8922319E-01 </wgt>
<wgt id='1647'> +3.8886947E-01 </wgt>
<wgt id='1648'> +3.8793504E-01 </wgt>
<wgt id='1649'> +3.8828681E-01 </wgt>
<wgt id='1650'> +3.8935990E-01 </wgt>
<wgt id='1651'> +3.8957504E-01 </wgt>
<wgt id='1652'> +3.8905945E-01 </wgt>
<wgt id='1653'> +3.8866941E-01 </wgt>
<wgt id='1654'> +3.8788693E-01 </wgt>
<wgt id='1655'> +3.9046526E-01 </wgt>
<wgt id='1656'> +3.8923131E-01 </wgt>
<wgt id='1657'> +3.8913028E-01 </wgt>
<wgt id='1658'> +3.9007202E-01 </wgt>
<wgt id='1659'> +3.8968192E-01 </wgt>
<wgt id='1660'> +3.8945213E-01 </wgt>
<wgt id='1661'> +3.8805442E-01 </wgt>
<wgt id='1662'> +3.8942816E-01 </wgt>
<wgt id='1663'> +3.8988702E-01 </wgt>
<wgt id='1664'> +3.8840310E-01 </wgt>
<wgt id='1665'> +3.8945659E-01 </wgt>
<wgt id='1666'> +3.8965679E-01 </wgt>
<wgt id='1667'> +3.9015295E-01 </wgt>
<wgt id='1668'> +3.8863781E-01 </wgt>
<wgt id='1669'> +3.8911365E-01 </wgt>
<wgt id='1670'> +3.8968836E-01 </wgt>
<wgt id='1671'> +3.8873794E-01 </wgt>
<wgt id='1672'> +3.8942939E-01 </wgt>
<wgt id='1673'> +3.8911176E-01 </wgt>
<wgt id='1674'> +3.8883070E-01 </wgt>
<wgt id='1675'> +3.8899185E-01 </wgt>
<wgt id='1676'> +3.8925848E-01 </wgt>
<wgt id='1677'> +3.8886749E-01 </wgt>
<wgt id='1678'> +3.8907972E-01 </wgt>
<wgt id='1679'> +3.8911793E-01 </wgt>
<wgt id='1680'> +3.8977154E-01 </wgt>
<wgt id='1681'> +3.8979469E-01 </wgt>
<wgt id='1682'> +3.8893121E-01 </wgt>
<wgt id='1683'> +3.8874572E-01 </wgt>
<wgt id='1684'> +3.8954140E-01 </wgt>
<wgt id='1685'> +3.9004336E-01 </wgt>
<wgt id='1686'> +3.8903076E-01 </wgt>
<wgt id='1687'> +3.8928298E-01 </wgt>
<wgt id='1688'> +3.8945574E-01 </wgt>
<wgt id='1689'> +3.8892757E-01 </wgt>
<wgt id='1690'> +3.8964540E-01 </wgt>
<wgt id='1691'> +3.8945234E-01 </wgt>
<wgt id='1692'> +3.8904011E-01 </wgt>
<wgt id='1693'> +3.8943373E-01 </wgt>
<wgt id='1694'> +3.8935084E-01 </wgt>
<wgt id='1695'> +3.8956723E-01 </wgt>
<wgt id='1696'> +3.8905196E-01 </wgt>
<wgt id='1697'> +3.8903073E-01 </wgt>
<wgt id='1698'> +3.8909320E-01 </wgt>
<wgt id='1699'> +3.8892498E-01 </wgt>
<wgt id='1700'> +3.8931341E-01 </wgt>
<wgt id='1701'> +3.8914312E-01 </wgt>
<wgt id='1702'> +3.8872737E-01 </wgt>
<wgt id='1703'> +3.8945248E-01 </wgt>
<wgt id='1704'> +3.8935576E-01 </wgt>
<wgt id='1705'> +3.8937189E-01 </wgt>
<wgt id='1706'> +3.8893220E-01 </wgt>
<wgt id='1707'> +3.8896287E-01 </wgt>
<wgt id='1708'> +3.8912964E-01 </wgt>
<wgt id='1709'> +3.8928242E-01 </wgt>
<wgt id='1710'> +3.8933814E-01 </wgt>
<wgt id='1711'> +3.8922519E-01 </wgt>
<wgt id='1712'> +3.8939738E-01 </wgt>
<wgt id='1713'> +3.8322236E-01 </wgt>
<wgt id='1714'> +3.9681261E-01 </wgt>
<wgt id='1715'> +4.0605909E-01 </wgt>
<wgt id='1716'> +3.9465067E-01 </wgt>
<wgt id='1717'> +4.1940814E-01 </wgt>
<wgt id='1718'> +4.0716014E-01 </wgt>
<wgt id='1719'> +4.0200925E-01 </wgt>
<wgt id='1720'> +4.1943511E-01 </wgt>
<wgt id='1721'> +4.2603517E-01 </wgt>
<wgt id='1722'> +4.1312725E-01 </wgt>
<wgt id='1723'> +3.9938147E-01 </wgt>
<wgt id='1724'> +4.0823626E-01 </wgt>
<wgt id='1725'> +3.9825957E-01 </wgt>
<wgt id='1726'> +3.9632844E-01 </wgt>
<wgt id='1727'> +4.0664109E-01 </wgt>
<wgt id='1728'> +4.0507757E-01 </wgt>
<wgt id='1729'> +4.0071345E-01 </wgt>
<wgt id='1730'> +3.9761554E-01 </wgt>
<wgt id='1731'> +4.0250425E-01 </wgt>
<wgt id='1732'> +4.0913443E-01 </wgt>
<wgt id='1733'> +4.0398683E-01 </wgt>
<wgt id='1734'> +4.1979651E-01 </wgt>
<wgt id='1735'> +3.9775158E-01 </wgt>
<wgt id='1736'> +4.1013820E-01 </wgt>
<wgt id='1737'> +4.0297266E-01 </wgt>
<wgt id='1738'> +4.1975658E-01 </wgt>
<wgt id='1739'> +4.1993806E-01 </wgt>
<wgt id='1740'> +4.1101843E-01 </wgt>
<wgt id='1741'> +4.0634457E-01 </wgt>
<wgt id='1742'> +3.9688064E-01 </wgt>
<wgt id='1743'> +4.0717223E-01 </wgt>
<wgt id='1744'> +4.0314650E-01 </wgt>
<wgt id='1745'> +4.1338147E-01 </wgt>
<wgt id='1746'> +3.9393581E-01 </wgt>
<wgt id='1747'> +4.0717127E-01 </wgt>
<wgt id='1748'> +4.0336864E-01 </wgt>
<wgt id='1749'> +3.9218258E-01 </wgt>
<wgt id='1750'> +3.9348796E-01 </wgt>
<wgt id='1751'> +4.2013202E-01 </wgt>
<wgt id='1752'> +4.1887994E-01 </wgt>
<wgt id='1753'> +4.0441997E-01 </wgt>
<wgt id='1754'> +3.9501243E-01 </wgt>
<wgt id='1755'> +3.9836776E-01 </wgt>
<wgt id='1756'> +4.2852380E-01 </wgt>
<wgt id='1757'> +4.0293413E-01 </wgt>
<wgt id='1758'> +4.0412683E-01 </wgt>
<wgt id='1759'> +4.0309906E-01 </wgt>
<wgt id='1760'> +3.9810232E-01 </wgt>
<wgt id='1761'> +3.9896752E-01 </wgt>
<wgt id='1762'> +4.0664109E-01 </wgt>
<wgt id='1763'> +4.2379996E-01 </wgt>
<wgt id='1764'> +4.0222463E-01 </wgt>
<wgt id='1765'> +4.0958260E-01 </wgt>
<wgt id='1766'> +4.0009639E-01 </wgt>
<wgt id='1767'> +4.0057878E-01 </wgt>
<wgt id='1768'> +3.7950675E-01 </wgt>
<wgt id='1769'> +4.0643725E-01 </wgt>
<wgt id='1770'> +4.0127421E-01 </wgt>
<wgt id='1771'> +4.1318250E-01 </wgt>
<wgt id='1772'> +4.0635037E-01 </wgt>
<wgt id='1773'> +4.1348274E-01 </wgt>
<wgt id='1774'> +4.1657331E-01 </wgt>
<wgt id='1775'> +4.1433946E-01 </wgt>
<wgt id='1776'> +4.0705809E-01 </wgt>
<wgt id='1777'> +3.9919033E-01 </wgt>
<wgt id='1778'> +4.0895470E-01 </wgt>
<wgt id='1779'> +4.1121989E-01 </wgt>
<wgt id='1780'> +4.2287354E-01 </wgt>
<wgt id='1781'> +4.0885469E-01 </wgt>
<wgt id='1782'> +3.9478121E-01 </wgt>
<wgt id='1783'> +4.1073042E-01 </wgt>
<wgt id='1784'> +4.0139511E-01 </wgt>
<wgt id='1785'> +4.0751042E-01 </wgt>
<wgt id='1786'> +3.9872608E-01 </wgt>
<wgt id='1787'> +4.0127170E-01 </wgt>
<wgt id='1788'> +4.0394524E-01 </wgt>
<wgt id='1789'> +4.0570369E-01 </wgt>
<wgt id='1790'> +4.0685675E-01 </wgt>
<wgt id='1791'> +4.1250739E-01 </wgt>
<wgt id='1792'> +4.1370630E-01 </wgt>
<wgt id='1793'> +4.1280225E-01 </wgt>
<wgt id='1794'> +4.0721012E-01 </wgt>
<wgt id='1795'> +4.1541072E-01 </wgt>
<wgt id='1796'> +3.9897390E-01 </wgt>
<wgt id='1797'> +4.1059211E-01 </wgt>
<wgt id='1798'> +4.1918976E-01 </wgt>
<wgt id='1799'> +4.0305304E-01 </wgt>
<wgt id='1800'> +4.0436918E-01 </wgt>
<wgt id='1801'> +4.0631955E-01 </wgt>
<wgt id='1802'> +4.0417765E-01 </wgt>
<wgt id='1803'> +4.0245419E-01 </wgt>
<wgt id='1804'> +4.0756084E-01 </wgt>
<wgt id='1805'> +4.0818666E-01 </wgt>
<wgt id='1806'> +4.1621534E-01 </wgt>
<wgt id='1807'> +4.0903823E-01 </wgt>
<wgt id='1808'> +3.8941613E-01 </wgt>
<wgt id='1809'> +4.1404132E-01 </wgt>
<wgt id='1810'> +4.0199239E-01 </wgt>
<wgt id='1811'> +3.9813410E-01 </wgt>
<wgt id='1812'> +3.9659280E-01 </wgt>
<wgt id='1813'> +4.0220083E-01 </wgt>
<wgt id='1814'> +3.9043261E-01 </wgt>
<wgt id='1815'> +3.9667077E-01 </wgt>
<wgt id='1816'> +3.9583968E-01 </wgt>
<wgt id='1817'> +4.0029339E-01 </wgt>
<wgt id='1818'> +4.0316028E-01 </wgt>
<wgt id='1819'> +4.0598902E-01 </wgt>
<wgt id='1820'> +3.8636334E-01 </wgt>
<wgt id='1821'> +4.0351196E-01 </wgt>
<wgt id='1822'> +3.8531719E-01 </wgt>
<wgt id='1823'> +3.9765486E-01 </wgt>
<wgt id='1824'> +3.9341041E-01 </wgt>
<wgt id='1825'> +3.8829508E-01 </wgt>
<wgt id='1826'> +4.0455316E-01 </wgt>
<wgt id='1827'> +4.1059863E-01 </wgt>
<wgt id='1828'> +3.9057045E-01 </wgt>
<wgt id='1829'> +3.8519108E-01 </wgt>
<wgt id='1830'> +4.1217793E-01 </wgt>
<wgt id='1831'> +3.9867264E-01 </wgt>
<wgt id='1832'> +3.9240500E-01 </wgt>
<wgt id='1833'> +4.1312180E-01 </wgt>
<wgt id='1834'> +3.9462204E-01 </wgt>
<wgt id='1835'> +3.9505157E-01 </wgt>
<wgt id='1836'> +3.8898853E-01 </wgt>
<wgt id='1837'> +3.9186308E-01 </wgt>
<wgt id='1838'> +3.9176980E-01 </wgt>
<wgt id='1839'> +3.9069566E-01 </wgt>
<wgt id='1840'> +3.9488244E-01 </wgt>
<wgt id='1841'> +3.9532601E-01 </wgt>
<wgt id='1842'> +3.8535927E-01 </wgt>
<wgt id='1843'> +4.0186581E-01 </wgt>
<wgt id='1844'> +4.1117288E-01 </wgt>
<wgt id='1845'> +4.0116039E-01 </wgt>
<wgt id='1846'> +3.8634787E-01 </wgt>
<wgt id='1847'> +3.8956409E-01 </wgt>
<wgt id='1848'> +3.9280444E-01 </wgt>
<wgt id='1849'> +3.9237494E-01 </wgt>
<wgt id='1850'> +3.8432684E-01 </wgt>
<wgt id='1851'> +3.9004968E-01 </wgt>
<wgt id='1852'> +3.9110960E-01 </wgt>
<wgt id='1853'> +3.9163661E-01 </wgt>
<wgt id='1854'> +3.9359654E-01 </wgt>
<wgt id='1855'> +3.9434352E-01 </wgt>
<wgt id='1856'> +3.9092108E-01 </wgt>
<wgt id='1857'> +4.0244201E-01 </wgt>
<wgt id='1858'> +3.9489342E-01 </wgt>
<wgt id='1859'> +3.8697114E-01 </wgt>
<wgt id='1860'> +3.9060846E-01 </wgt>
<wgt id='1861'> +4.0457095E-01 </wgt>
<wgt id='1862'> +3.9105261E-01 </wgt>
<wgt id='1863'> +3.9630441E-01 </wgt>
<wgt id='1864'> +3.9866868E-01 </wgt>
<wgt id='1865'> +3.9519177E-01 </wgt>
<wgt id='1866'> +3.9968713E-01 </wgt>
<wgt id='1867'> +3.9724213E-01 </wgt>
<wgt id='1868'> +3.9335128E-01 </wgt>
<wgt id='1869'> +3.9684444E-01 </wgt>
<wgt id='1870'> +3.9210353E-01 </wgt>
<wgt id='1871'> +3.9647902E-01 </wgt>
<wgt id='1872'> +4.0632226E-01 </wgt>
<wgt id='1873'> +3.8557348E-01 </wgt>
<wgt id='1874'> +4.0197256E-01 </wgt>
<wgt id='1875'> +4.0114426E-01 </wgt>
<wgt id='1876'> +3.9387721E-01 </wgt>
<wgt id='1877'> +3.9045209E-01 </wgt>
<wgt id='1878'> +4.0226505E-01 </wgt>
<wgt id='1879'> +3.9693394E-01 </wgt>
<wgt id='1880'> +3.9962597E-01 </wgt>
<wgt id='1881'> +3.8229998E-01 </wgt>
<wgt id='1882'> +3.9238482E-01 </wgt>
<wgt id='1883'> +4.0348810E-01 </wgt>
<wgt id='1884'> +3.9154178E-01 </wgt>
<wgt id='1885'> +3.9742250E-01 </wgt>
<wgt id='1886'> +3.8842223E-01 </wgt>
<wgt id='1887'> +3.9496839E-01 </wgt>
<wgt id='1888'> +3.9405688E-01 </wgt>
<wgt id='1889'> +4.1541337E-01 </wgt>
<wgt id='1890'> +3.9831383E-01 </wgt>
<wgt id='1891'> +4.0897795E-01 </wgt>
<wgt id='1892'> +3.9324044E-01 </wgt>
<wgt id='1893'> +3.8689352E-01 </wgt>
<wgt id='1894'> +3.8637196E-01 </wgt>
<wgt id='1895'> +3.9638724E-01 </wgt>
<wgt id='1896'> +3.9021184E-01 </wgt>
<wgt id='1897'> +3.9501560E-01 </wgt>
<wgt id='1898'> +3.9957826E-01 </wgt>
<wgt id='1899'> +3.9135341E-01 </wgt>
<wgt id='1900'> +4.0154349E-01 </wgt>
<wgt id='1901'> +4.0811959E-01 </wgt>
<wgt id='1902'> +4.0516960E-01 </wgt>
<wgt id='1903'> +4.0680051E-01 </wgt>
<wgt id='1904'> +4.0134108E-01 </wgt>
<wgt id='1905'> +3.9038904E-01 </wgt>
<wgt id='1906'> +4.0183384E-01 </wgt>
<wgt id='1907'> +3.8901264E-01 </wgt>
<wgt id='1908'> +3.8264767E-01 </wgt>
<wgt id='1909'> +3.9593052E-01 </wgt>
<wgt id='1910'> +4.0658922E-01 </wgt>
<wgt id='1911'> +4.0573846E-01 </wgt>
<wgt id='1912'> +3.8926294E-01 </wgt>
<wgt id='1913'> +3.9831208E-01 </wgt>
<wgt id='1914'> +3.8646595E-01 </wgt>
<wgt id='1915'> +3.9191233E-01 </wgt>
<wgt id='1916'> +3.8850270E-01 </wgt>
<wgt id='1917'> +3.9246779E-01 </wgt>
<wgt id='1918'> +3.9845592E-01 </wgt>
<wgt id='1919'> +3.9583968E-01 </wgt>
<wgt id='1920'> +4.0029339E-01 </wgt>
<wgt id='1921'> +4.0316028E-01 </wgt>
<wgt id='1922'> +4.0598902E-01 </wgt>
<wgt id='1923'> +3.8636334E-01 </wgt>
<wgt id='1924'> +4.0351196E-01 </wgt>
<wgt id='1925'> +3.8531719E-01 </wgt>
<wgt id='1926'> +3.9765486E-01 </wgt>
<wgt id='1927'> +3.9341041E-01 </wgt>
<wgt id='1928'> +3.8829508E-01 </wgt>
<wgt id='1929'> +4.0455316E-01 </wgt>
<wgt id='1930'> +4.1059863E-01 </wgt>
<wgt id='1931'> +3.9057045E-01 </wgt>
<wgt id='1932'> +3.8519108E-01 </wgt>
<wgt id='1933'> +4.1217793E-01 </wgt>
<wgt id='1934'> +3.9867264E-01 </wgt>
<wgt id='1935'> +3.9240500E-01 </wgt>
<wgt id='1936'> +4.1312180E-01 </wgt>
<wgt id='1937'> +3.9462204E-01 </wgt>
<wgt id='1938'> +3.9505157E-01 </wgt>
<wgt id='1939'> +3.8898853E-01 </wgt>
<wgt id='1940'> +3.9186308E-01 </wgt>
<wgt id='1941'> +3.9176980E-01 </wgt>
<wgt id='1942'> +3.9069566E-01 </wgt>
<wgt id='1943'> +3.9488244E-01 </wgt>
<wgt id='1944'> +3.9532601E-01 </wgt>
<wgt id='1945'> +3.8535927E-01 </wgt>
<wgt id='1946'> +4.0186581E-01 </wgt>
<wgt id='1947'> +4.1117288E-01 </wgt>
<wgt id='1948'> +4.0116039E-01 </wgt>
<wgt id='1949'> +3.8634787E-01 </wgt>
<wgt id='1950'> +3.8956409E-01 </wgt>
<wgt id='1951'> +3.9280444E-01 </wgt>
<wgt id='1952'> +3.9237494E-01 </wgt>
<wgt id='1953'> +3.8432684E-01 </wgt>
<wgt id='1954'> +3.9004968E-01 </wgt>
<wgt id='1955'> +3.9110960E-01 </wgt>
<wgt id='1956'> +3.9163661E-01 </wgt>
<wgt id='1957'> +3.9359654E-01 </wgt>
<wgt id='1958'> +3.9434352E-01 </wgt>
<wgt id='1959'> +3.9092108E-01 </wgt>
<wgt id='1960'> +4.0244201E-01 </wgt>
<wgt id='1961'> +3.9489342E-01 </wgt>
<wgt id='1962'> +3.8697114E-01 </wgt>
<wgt id='1963'> +3.9060846E-01 </wgt>
<wgt id='1964'> +4.0457095E-01 </wgt>
<wgt id='1965'> +3.9105261E-01 </wgt>
<wgt id='1966'> +3.9630441E-01 </wgt>
<wgt id='1967'> +3.9866868E-01 </wgt>
<wgt id='1968'> +3.9519177E-01 </wgt>
<wgt id='1969'> +3.9968713E-01 </wgt>
<wgt id='1970'> +3.9724213E-01 </wgt>
<wgt id='1971'> +3.9335128E-01 </wgt>
<wgt id='1972'> +3.9684444E-01 </wgt>
<wgt id='1973'> +3.9210353E-01 </wgt>
<wgt id='1974'> +3.9647902E-01 </wgt>
<wgt id='1975'> +4.0632226E-01 </wgt>
<wgt id='1976'> +3.8557348E-01 </wgt>
<wgt id='1977'> +4.0197256E-01 </wgt>
<wgt id='1978'> +4.0114426E-01 </wgt>
<wgt id='1979'> +3.9387721E-01 </wgt>
<wgt id='1980'> +3.9045209E-01 </wgt>
<wgt id='1981'> +4.0226505E-01 </wgt>
<wgt id='1982'> +3.9693394E-01 </wgt>
<wgt id='1983'> +3.9962597E-01 </wgt>
<wgt id='1984'> +3.8229998E-01 </wgt>
<wgt id='1985'> +3.9238482E-01 </wgt>
<wgt id='1986'> +4.0348810E-01 </wgt>
<wgt id='1987'> +3.9154178E-01 </wgt>
<wgt id='1988'> +3.9742250E-01 </wgt>
<wgt id='1989'> +3.8842223E-01 </wgt>
<wgt id='1990'> +3.9496839E-01 </wgt>
<wgt id='1991'> +3.9405688E-01 </wgt>
<wgt id='1992'> +4.1541337E-01 </wgt>
<wgt id='1993'> +3.9831383E-01 </wgt>
<wgt id='1994'> +4.0897795E-01 </wgt>
<wgt id='1995'> +3.9324044E-01 </wgt>
<wgt id='1996'> +3.8689352E-01 </wgt>
<wgt id='1997'> +3.8637196E-01 </wgt>
<wgt id='1998'> +3.9638724E-01 </wgt>
<wgt id='1999'> +3.9021184E-01 </wgt>
<wgt id='2000'> +3.9501560E-01 </wgt>
<wgt id='2001'> +3.9957826E-01 </wgt>
<wgt id='2002'> +3.9135341E-01 </wgt>
<wgt id='2003'> +4.0154349E-01 </wgt>
<wgt id='2004'> +4.0811959E-01 </wgt>
<wgt id='2005'> +4.0516960E-01 </wgt>
<wgt id='2006'> +4.0680051E-01 </wgt>
<wgt id='2007'> +4.0134108E-01 </wgt>
<wgt id='2008'> +3.9038904E-01 </wgt>
<wgt id='2009'> +4.0183384E-01 </wgt>
<wgt id='2010'> +3.8901264E-01 </wgt>
<wgt id='2011'> +3.8264767E-01 </wgt>
<wgt id='2012'> +3.9593052E-01 </wgt>
<wgt id='2013'> +4.0658922E-01 </wgt>
<wgt id='2014'> +4.0573846E-01 </wgt>
<wgt id='2015'> +3.8926294E-01 </wgt>
<wgt id='2016'> +3.9831208E-01 </wgt>
<wgt id='2017'> +3.8646595E-01 </wgt>
<wgt id='2018'> +3.9191233E-01 </wgt>
<wgt id='2019'> +3.8850270E-01 </wgt>
<wgt id='2020'> +3.9213773E-01 </wgt>
<wgt id='2021'> +3.9732796E-01 </wgt>
<wgt id='2022'> +3.9327626E-01 </wgt>
</rwgt>
</event>
<event>
13      1 +3.9556008E-01 1.42631000e+02 7.81860800e-03 1.09983100e-01
       21 -1    0    0  502  503 +0.0000000000e+00 +0.0000000000e+00 +5.8068989437e+02 5.8068989437e+02 0.0000000000e+00 0.0000e+00 -1.0000e+00
        2 -1    0    0  501    0 +0.0000000000e+00 +0.0000000000e+00 -6.8061676822e+02 6.8061676822e+02 2.5500000000e-03 0.0000e+00 -1.0000e+00
  8000001  2    1    2  502    0 +9.5164069846e+01 +1.0460837503e+02 -8.2091746708e+01 6.2188424496e+02 6.0000153911e+02 0.0000e+00 0.0000e+00
        1  1    1    2  501    0 -1.0251001684e+02 -9.9295201804e+01 -3.1304200498e+02 3.4403944187e+02 5.0400000000e-03 0.0000e+00 -1.0000e+00
       -5  1    1    2    0  503 +7.3459469909e+00 -5.3131732268e+00 +2.9520687784e+02 2.9538297576e+02 4.6700000000e+00 0.0000e+00 -1.0000e+00
        6  2    3    3  502    0 -8.6236890172e+01 -1.5738066760e+02 -1.4038773708e+02 2.8557990746e+02 1.7216762489e+02 0.0000e+00 0.0000e+00
        5  1    6    6  502    0 -5.7890940132e+01 -5.8004178191e+01 -1.2915640199e+02 1.5303277660e+02 4.6700000000e+00 0.0000e+00 -1.0000e+00
       24  2    6    6    0    0 -2.8345950040e+01 -9.9376489408e+01 -1.1231335094e+01 1.3254713086e+02 8.2240011434e+01 0.0000e+00 0.0000e+00
       12  1    8    8    0    0 -1.7556323838e+01 -1.1312746904e+02 -7.9010420142e+00 1.1475397693e+02 0.0000000000e+00 0.0000e+00 -1.0000e+00
      -11  1    8    8    0    0 -1.0789626203e+01 +1.3750979629e+01 -3.3302930800e+00 1.7793153926e+01 5.1100000000e-04 0.0000e+00 1.0000e+00
       23  2    3    3    0    0 +1.8140096002e+02 +2.6198904263e+02 +5.8295990377e+01 3.3630433750e+02 9.0319533741e+01 0.0000e+00 0.0000e+00
       16  1   11   11    0    0 +1.6999603800e+02 +2.5886024400e+02 +7.2257740861e+01 3.1800701246e+02 0.0000000000e+00 0.0000e+00 -1.0000e+00
      -16  1   11   11    0    0 +1.1404922021e+01 +3.1287986294e+00 -1.3961750484e+01 1.8297325043e+01 0.0000000000e+00 0.0000e+00 1.0000e+00
<mgrwt>
<rscale>  1 0.10635532e+03</rscale>
<asrwt>0</asrwt>
<pdfrwt beam="1">  1       21 0.89336907e-01 0.79305738e+02</pdfrwt>
<pdfrwt beam="2">  1        2 0.10471027e+00 0.14263098e+03</pdfrwt>
<totfact> 0.70103769e+02</totfact>
</mgrwt>
<rwgt>
<wgt id='1001'> +3.9556008E-01 </wgt>
<wgt id='1002'> +2.4593867E-01 </wgt>
<wgt id='1003'> +2.4584282E-01 </wgt>
<wgt id='1004'> +2.8796223E-01 </wgt>
<wgt id='1005'> +2.1620823E-01 </wgt>
<wgt id='1006'> +3.5743156E-01 </wgt>
<wgt id='1007'> +2.2730614E-01 </wgt>
<wgt id='1008'> +2.2722133E-01 </wgt>
<wgt id='1009'> +2.6427522E-01 </wgt>
<wgt id='1010'> +2.0088205E-01 </wgt>
<wgt id='1011'> +4.4313107E-01 </wgt>
<wgt id='1012'> +2.6798751E-01 </wgt>
<wgt id='1013'> +2.6787773E-01 </wgt>
<wgt id='1014'> +3.1645553E-01 </wgt>
<wgt id='1015'> +2.3412811E-01 </wgt>
<wgt id='1016'> +3.6472568E-01 </wgt>
<wgt id='1017'> +2.2968638E-01 </wgt>
<wgt id='1018'> +2.2959880E-01 </wgt>
<wgt id='1019'> +2.6787773E-01 </wgt>
<wgt id='1020'> +2.0255604E-01 </wgt>
<wgt id='1021'> +3.2956931E-01 </wgt>
<wgt id='1022'> +2.1228514E-01 </wgt>
<wgt id='1023'> +2.1220773E-01 </wgt>
<wgt id='1024'> +2.4584282E-01 </wgt>
<wgt id='1025'> +1.8819761E-01 </wgt>
<wgt id='1026'> +4.0858843E-01 </wgt>
<wgt id='1027'> +2.5027818E-01 </wgt>
<wgt id='1028'> +2.5017776E-01 </wgt>
<wgt id='1029'> +2.9438372E-01 </wgt>
<wgt id='1030'> +2.1934439E-01 </wgt>
<wgt id='1031'> +4.3112770E-01 </wgt>
<wgt id='1032'> +2.6438144E-01 </wgt>
<wgt id='1033'> +2.6427522E-01 </wgt>
<wgt id='1034'> +3.1083990E-01 </wgt>
<wgt id='1035'> +2.3160710E-01 </wgt>
<wgt id='1036'> +3.8957076E-01 </wgt>
<wgt id='1037'> +2.4435168E-01 </wgt>
<wgt id='1038'> +2.4425756E-01 </wgt>
<wgt id='1039'> +2.8527103E-01 </wgt>
<wgt id='1040'> +2.1518935E-01 </wgt>
<wgt id='1041'> +4.8297613E-01 </wgt>
<wgt id='1042'> +2.8808371E-01 </wgt>
<wgt id='1043'> +2.8796223E-01 </wgt>
<wgt id='1044'> +3.4159689E-01 </wgt>
<wgt id='1045'> +2.5080327E-01 </wgt>
<wgt id='1046'> +3.9556008E-01 </wgt>
<wgt id='1047'> +3.9556008E-01 </wgt>
<wgt id='1048'> +3.9556008E-01 </wgt>
<wgt id='1049'> +3.9487452E-01 </wgt>
<wgt id='1050'> +3.9512164E-01 </wgt>
<wgt id='1051'> +3.9660909E-01 </wgt>
<wgt id='1052'> +3.9539585E-01 </wgt>
<wgt id='1053'> +3.9602074E-01 </wgt>
<wgt id='1054'> +3.9501310E-01 </wgt>
<wgt id='1055'> +3.9462283E-01 </wgt>
<wgt id='1056'> +3.9429634E-01 </wgt>
<wgt id='1057'> +3.9633572E-01 </wgt>
<wgt id='1058'> +3.9508748E-01 </wgt>
<wgt id='1059'> +3.9689678E-01 </wgt>
<wgt id='1060'> +3.9434163E-01 </wgt>
<wgt id='1061'> +3.9581282E-01 </wgt>
<wgt id='1062'> +3.9648120E-01 </wgt>
<wgt id='1063'> +3.9584766E-01 </wgt>
<wgt id='1064'> +3.9643679E-01 </wgt>
<wgt id='1065'> +3.9731180E-01 </wgt>
<wgt id='1066'> +3.9497203E-01 </wgt>
<wgt id='1067'> +3.9272753E-01 </wgt>
<wgt id='1068'> +3.9583076E-01 </wgt>
<wgt id='1069'> +3.9452619E-01 </wgt>
<wgt id='1070'> +3.9724834E-01 </wgt>
<wgt id='1071'> +3.9686384E-01 </wgt>
<wgt id='1072'> +3.9499478E-01 </wgt>
<wgt id='1073'> +3.9519390E-01 </wgt>
<wgt id='1074'> +3.9459251E-01 </wgt>
<wgt id='1075'> +3.9491955E-01 </wgt>
<wgt id='1076'> +3.9632830E-01 </wgt>
<wgt id='1077'> +3.9609000E-01 </wgt>
<wgt id='1078'> +3.9594610E-01 </wgt>
<wgt id='1079'> +3.9653890E-01 </wgt>
<wgt id='1080'> +3.9578661E-01 </wgt>
<wgt id='1081'> +3.9594138E-01 </wgt>
<wgt id='1082'> +3.9563039E-01 </wgt>
<wgt id='1083'> +3.9531972E-01 </wgt>
<wgt id='1084'> +3.9520747E-01 </wgt>
<wgt id='1085'> +3.9618396E-01 </wgt>
<wgt id='1086'> +3.9498540E-01 </wgt>
<wgt id='1087'> +3.9531625E-01 </wgt>
<wgt id='1088'> +3.9648327E-01 </wgt>
<wgt id='1089'> +3.9667266E-01 </wgt>
<wgt id='1090'> +3.9651807E-01 </wgt>
<wgt id='1091'> +3.9506974E-01 </wgt>
<wgt id='1092'> +3.9546831E-01 </wgt>
<wgt id='1093'> +3.9523278E-01 </wgt>
<wgt id='1094'> +3.9527067E-01 </wgt>
<wgt id='1095'> +3.9503535E-01 </wgt>
<wgt id='1096'> +3.9454667E-01 </wgt>
<wgt id='1097'> +3.9584649E-01 </wgt>
<wgt id='1098'> +3.9487755E-01 </wgt>
<wgt id='1099'> +3.9536104E-01 </wgt>
<wgt id='1100'> +3.9621532E-01 </wgt>
<wgt id='1101'> +3.9573317E-01 </wgt>
<wgt id='1102'> +3.9597674E-01 </wgt>
<wgt id='1103'> +3.9577019E-01 </wgt>
<wgt id='1104'> +3.9552723E-01 </wgt>
<wgt id='1105'> +3.9619598E-01 </wgt>
<wgt id='1106'> +3.9583933E-01 </wgt>
<wgt id='1107'> +3.9577980E-01 </wgt>
<wgt id='1108'> +3.9542049E-01 </wgt>
<wgt id='1109'> +3.9567043E-01 </wgt>
<wgt id='1110'> +3.9563516E-01 </wgt>
<wgt id='1111'> +3.9523712E-01 </wgt>
<wgt id='1112'> +3.9527644E-01 </wgt>
<wgt id='1113'> +3.9596322E-01 </wgt>
<wgt id='1114'> +3.9547288E-01 </wgt>
<wgt id='1115'> +3.9559739E-01 </wgt>
<wgt id='1116'> +3.9543677E-01 </wgt>
<wgt id='1117'> +3.9572193E-01 </wgt>
<wgt id='1118'> +3.9543654E-01 </wgt>
<wgt id='1119'> +3.9536469E-01 </wgt>
<wgt id='1120'> +3.9575638E-01 </wgt>
<wgt id='1121'> +3.9511363E-01 </wgt>
<wgt id='1122'> +3.9554968E-01 </wgt>
<wgt id='1123'> +3.9531931E-01 </wgt>
<wgt id='1124'> +3.9559063E-01 </wgt>
<wgt id='1125'> +3.9609326E-01 </wgt>
<wgt id='1126'> +3.9576640E-01 </wgt>
<wgt id='1127'> +3.9549196E-01 </wgt>
<wgt id='1128'> +3.9580627E-01 </wgt>
<wgt id='1129'> +3.9525818E-01 </wgt>
<wgt id='1130'> +3.9551299E-01 </wgt>
<wgt id='1131'> +3.9560898E-01 </wgt>
<wgt id='1132'> +3.9572292E-01 </wgt>
<wgt id='1133'> +3.9571531E-01 </wgt>
<wgt id='1134'> +3.9546350E-01 </wgt>
<wgt id='1135'> +3.9534634E-01 </wgt>
<wgt id='1136'> +3.9538732E-01 </wgt>
<wgt id='1137'> +3.9554304E-01 </wgt>
<wgt id='1138'> +3.9558723E-01 </wgt>
<wgt id='1139'> +3.9553270E-01 </wgt>
<wgt id='1140'> +3.9582057E-01 </wgt>
<wgt id='1141'> +3.9562587E-01 </wgt>
<wgt id='1142'> +3.9556559E-01 </wgt>
<wgt id='1143'> +3.9574790E-01 </wgt>
<wgt id='1144'> +3.9542579E-01 </wgt>
<wgt id='1145'> +3.9565695E-01 </wgt>
<wgt id='1146'> +3.9555752E-01 </wgt>
<wgt id='1147'> +3.9566266E-01 </wgt>
<wgt id='1148'> +3.9556008E-01 </wgt>
<wgt id='1149'> +3.8441392E-01 </wgt>
<wgt id='1150'> +3.8850984E-01 </wgt>
<wgt id='1151'> +3.8664797E-01 </wgt>
<wgt id='1152'> +3.7454164E-01 </wgt>
<wgt id='1153'> +3.7983804E-01 </wgt>
<wgt id='1154'> +3.8505819E-01 </wgt>
<wgt id='1155'> +3.8683891E-01 </wgt>
<wgt id='1156'> +3.8921992E-01 </wgt>
<wgt id='1157'> +3.8699286E-01 </wgt>
<wgt id='1158'> +3.8045880E-01 </wgt>
<wgt id='1159'> +3.7550435E-01 </wgt>
<wgt id='1160'> +3.7800707E-01 </wgt>
<wgt id='1161'> +3.8785402E-01 </wgt>
<wgt id='1162'> +3.7835525E-01 </wgt>
<wgt id='1163'> +3.9352192E-01 </wgt>
<wgt id='1164'> +3.7766436E-01 </wgt>
<wgt id='1165'> +3.8146242E-01 </wgt>
<wgt id='1166'> +3.8671359E-01 </wgt>
<wgt id='1167'> +3.8510132E-01 </wgt>
<wgt id='1168'> +3.8386904E-01 </wgt>
<wgt id='1169'> +3.7747779E-01 </wgt>
<wgt id='1170'> +3.7917307E-01 </wgt>
<wgt id='1171'> +3.7864009E-01 </wgt>
<wgt id='1172'> +3.8569671E-01 </wgt>
<wgt id='1173'> +3.8637837E-01 </wgt>
<wgt id='1174'> +3.9034820E-01 </wgt>
<wgt id='1175'> +3.8722204E-01 </wgt>
<wgt id='1176'> +3.6958472E-01 </wgt>
<wgt id='1177'> +3.8778173E-01 </wgt>
<wgt id='1178'> +3.8683152E-01 </wgt>
<wgt id='1179'> +3.8465196E-01 </wgt>
<wgt id='1180'> +3.8383592E-01 </wgt>
<wgt id='1181'> +3.8123997E-01 </wgt>
<wgt id='1182'> +3.8682636E-01 </wgt>
<wgt id='1183'> +3.9096914E-01 </wgt>
<wgt id='1184'> +3.6852692E-01 </wgt>
<wgt id='1185'> +3.8514981E-01 </wgt>
<wgt id='1186'> +3.7563320E-01 </wgt>
<wgt id='1187'> +3.8363662E-01 </wgt>
<wgt id='1188'> +3.8190855E-01 </wgt>
<wgt id='1189'> +3.8934970E-01 </wgt>
<wgt id='1190'> +3.8786369E-01 </wgt>
<wgt id='1191'> +3.9313768E-01 </wgt>
<wgt id='1192'> +3.8468670E-01 </wgt>
<wgt id='1193'> +3.9253947E-01 </wgt>
<wgt id='1194'> +3.8922755E-01 </wgt>
<wgt id='1195'> +3.8465467E-01 </wgt>
<wgt id='1196'> +3.8950129E-01 </wgt>
<wgt id='1197'> +3.9529182E-01 </wgt>
<wgt id='1198'> +3.8011437E-01 </wgt>
<wgt id='1199'> +3.7531388E-01 </wgt>
<wgt id='1200'> +3.8296629E-01 </wgt>
<wgt id='1201'> +3.8311404E-01 </wgt>
<wgt id='1202'> +3.8643781E-01 </wgt>
<wgt id='1203'> +3.7930599E-01 </wgt>
<wgt id='1204'> +3.9648356E-01 </wgt>
<wgt id='1205'> +3.8536522E-01 </wgt>
<wgt id='1206'> +3.8307909E-01 </wgt>
<wgt id='1207'> +3.9371115E-01 </wgt>
<wgt id='1208'> +3.8383184E-01 </wgt>
<wgt id='1209'> +3.8781630E-01 </wgt>
<wgt id='1210'> +3.7748933E-01 </wgt>
<wgt id='1211'> +3.8403050E-01 </wgt>
<wgt id='1212'> +3.8166082E-01 </wgt>
<wgt id='1213'> +3.9481694E-01 </wgt>
<wgt id='1214'> +3.8382983E-01 </wgt>
<wgt id='1215'> +4.0160605E-01 </wgt>
<wgt id='1216'> +3.8662930E-01 </wgt>
<wgt id='1217'> +3.8154520E-01 </wgt>
<wgt id='1218'> +3.9152623E-01 </wgt>
<wgt id='1219'> +3.8603796E-01 </wgt>
<wgt id='1220'> +3.7842623E-01 </wgt>
<wgt id='1221'> +3.7442610E-01 </wgt>
<wgt id='1222'> +3.7995535E-01 </wgt>
<wgt id='1223'> +3.7322364E-01 </wgt>
<wgt id='1224'> +3.8467794E-01 </wgt>
<wgt id='1225'> +3.9071485E-01 </wgt>
<wgt id='1226'> +3.8189079E-01 </wgt>
<wgt id='1227'> +3.8071291E-01 </wgt>
<wgt id='1228'> +3.8253514E-01 </wgt>
<wgt id='1229'> +3.9008029E-01 </wgt>
<wgt id='1230'> +3.8593629E-01 </wgt>
<wgt id='1231'> +3.8146242E-01 </wgt>
<wgt id='1232'> +3.7599859E-01 </wgt>
<wgt id='1233'> +3.8108113E-01 </wgt>
<wgt id='1234'> +3.7406511E-01 </wgt>
<wgt id='1235'> +3.9396153E-01 </wgt>
<wgt id='1236'> +3.8030487E-01 </wgt>
<wgt id='1237'> +3.8120694E-01 </wgt>
<wgt id='1238'> +3.7520186E-01 </wgt>
<wgt id='1239'> +3.9608572E-01 </wgt>
<wgt id='1240'> +3.9298035E-01 </wgt>
<wgt id='1241'> +3.8440207E-01 </wgt>
<wgt id='1242'> +3.8009745E-01 </wgt>
<wgt id='1243'> +3.8792485E-01 </wgt>
<wgt id='1244'> +3.8451909E-01 </wgt>
<wgt id='1245'> +3.8784126E-01 </wgt>
<wgt id='1246'> +3.9081385E-01 </wgt>
<wgt id='1247'> +3.8928991E-01 </wgt>
<wgt id='1248'> +3.8507817E-01 </wgt>
<wgt id='1249'> +3.8428301E-01 </wgt>
<wgt id='1250'> +3.8848430E-01 </wgt>
<wgt id='1251'> +3.8411983E-01 </wgt>
<wgt id='1252'> +4.0090992E-01 </wgt>
<wgt id='1253'> +3.9602703E-01 </wgt>
<wgt id='1254'> +3.6858220E-01 </wgt>
<wgt id='1255'> +3.9453799E-01 </wgt>
<wgt id='1256'> +3.9595314E-01 </wgt>
<wgt id='1257'> +3.9370739E-01 </wgt>
<wgt id='1258'> +3.9355737E-01 </wgt>
<wgt id='1259'> +3.9502043E-01 </wgt>
<wgt id='1260'> +3.9481592E-01 </wgt>
<wgt id='1261'> +3.9413703E-01 </wgt>
<wgt id='1262'> +3.9478258E-01 </wgt>
<wgt id='1263'> +3.9437055E-01 </wgt>
<wgt id='1264'> +3.9454725E-01 </wgt>
<wgt id='1265'> +3.9451553E-01 </wgt>
<wgt id='1266'> +3.9504073E-01 </wgt>
<wgt id='1267'> +3.9401823E-01 </wgt>
<wgt id='1268'> +3.9813722E-01 </wgt>
<wgt id='1269'> +3.9091217E-01 </wgt>
<wgt id='1270'> +3.9176654E-01 </wgt>
<wgt id='1271'> +3.9731876E-01 </wgt>
<wgt id='1272'> +3.9372815E-01 </wgt>
<wgt id='1273'> +3.9514538E-01 </wgt>
<wgt id='1274'> +3.9514506E-01 </wgt>
<wgt id='1275'> +3.9386370E-01 </wgt>
<wgt id='1276'> +3.9620994E-01 </wgt>
<wgt id='1277'> +3.9282739E-01 </wgt>
<wgt id='1278'> +3.9193013E-01 </wgt>
<wgt id='1279'> +3.9657358E-01 </wgt>
<wgt id='1280'> +3.9356570E-01 </wgt>
<wgt id='1281'> +3.9711652E-01 </wgt>
<wgt id='1282'> +3.9613430E-01 </wgt>
<wgt id='1283'> +3.9245314E-01 </wgt>
<wgt id='1284'> +3.9448830E-01 </wgt>
<wgt id='1285'> +3.9430435E-01 </wgt>
<wgt id='1286'> +3.9419214E-01 </wgt>
<wgt id='1287'> +3.9452407E-01 </wgt>
<wgt id='1288'> +3.9534275E-01 </wgt>
<wgt id='1289'> +3.9412165E-01 </wgt>
<wgt id='1290'> +3.9513085E-01 </wgt>
<wgt id='1291'> +3.9431606E-01 </wgt>
<wgt id='1292'> +3.9721074E-01 </wgt>
<wgt id='1293'> +3.9125138E-01 </wgt>
<wgt id='1294'> +3.9275385E-01 </wgt>
<wgt id='1295'> +3.9425787E-01 </wgt>
<wgt id='1296'> +3.9963258E-01 </wgt>
<wgt id='1297'> +4.0071077E-01 </wgt>
<wgt id='1298'> +3.9874915E-01 </wgt>
<wgt id='1299'> +3.9929727E-01 </wgt>
<wgt id='1300'> +4.0000581E-01 </wgt>
<wgt id='1301'> +3.9878404E-01 </wgt>
<wgt id='1302'> +4.0089047E-01 </wgt>
<wgt id='1303'> +3.9873261E-01 </wgt>
<wgt id='1304'> +4.0022302E-01 </wgt>
<wgt id='1305'> +3.9978505E-01 </wgt>
<wgt id='1306'> +3.9939254E-01 </wgt>
<wgt id='1307'> +4.0050302E-01 </wgt>
<wgt id='1308'> +3.9907432E-01 </wgt>
<wgt id='1309'> +3.9973903E-01 </wgt>
<wgt id='1310'> +3.9949092E-01 </wgt>
<wgt id='1311'> +4.0272790E-01 </wgt>
<wgt id='1312'> +3.9849434E-01 </wgt>
<wgt id='1313'> +3.9713070E-01 </wgt>
<wgt id='1314'> +4.0265771E-01 </wgt>
<wgt id='1315'> +4.0021076E-01 </wgt>
<wgt id='1316'> +3.9907799E-01 </wgt>
<wgt id='1317'> +4.0099336E-01 </wgt>
<wgt id='1318'> +3.9747015E-01 </wgt>
<wgt id='1319'> +3.9857833E-01 </wgt>
<wgt id='1320'> +4.0050375E-01 </wgt>
<wgt id='1321'> +3.9710339E-01 </wgt>
<wgt id='1322'> +4.0084524E-01 </wgt>
<wgt id='1323'> +3.9862988E-01 </wgt>
<wgt id='1324'> +4.0063062E-01 </wgt>
<wgt id='1325'> +3.9952240E-01 </wgt>
<wgt id='1326'> +3.9976466E-01 </wgt>
<wgt id='1327'> +3.9986185E-01 </wgt>
<wgt id='1328'> +3.9953999E-01 </wgt>
<wgt id='1329'> +4.0015822E-01 </wgt>
<wgt id='1330'> +3.9934402E-01 </wgt>
<wgt id='1331'> +3.9885304E-01 </wgt>
<wgt id='1332'> +4.0005107E-01 </wgt>
<wgt id='1333'> +4.0274756E-01 </wgt>
<wgt id='1334'> +3.9810171E-01 </wgt>
<wgt id='1335'> +4.0045409E-01 </wgt>
<wgt id='1336'> +3.9940061E-01 </wgt>
<wgt id='1337'> +3.9963258E-01 </wgt>
<wgt id='1338'> +3.9976457E-01 </wgt>
<wgt id='1339'> +3.9969901E-01 </wgt>
<wgt id='1340'> +3.9962938E-01 </wgt>
<wgt id='1341'> +3.9949261E-01 </wgt>
<wgt id='1342'> +3.9943101E-01 </wgt>
<wgt id='1343'> +3.9937163E-01 </wgt>
<wgt id='1344'> +3.9567565E-01 </wgt>
<wgt id='1345'> +3.9720436E-01 </wgt>
<wgt id='1346'> +3.9417903E-01 </wgt>
<wgt id='1347'> +3.9669902E-01 </wgt>
<wgt id='1348'> +3.9492030E-01 </wgt>
<wgt id='1349'> +3.9453548E-01 </wgt>
<wgt id='1350'> +3.9664334E-01 </wgt>
<wgt id='1351'> +3.9567329E-01 </wgt>
<wgt id='1352'> +3.9569700E-01 </wgt>
<wgt id='1353'> +3.9656805E-01 </wgt>
<wgt id='1354'> +3.9504286E-01 </wgt>
<wgt id='1355'> +3.9543019E-01 </wgt>
<wgt id='1356'> +3.9587958E-01 </wgt>
<wgt id='1357'> +3.9572201E-01 </wgt>
<wgt id='1358'> +3.9564868E-01 </wgt>
<wgt id='1359'> +3.9436735E-01 </wgt>
<wgt id='1360'> +3.9896910E-01 </wgt>
<wgt id='1361'> +3.9244001E-01 </wgt>
<wgt id='1362'> +3.9870613E-01 </wgt>
<wgt id='1363'> +3.9487679E-01 </wgt>
<wgt id='1364'> +3.9668394E-01 </wgt>
<wgt id='1365'> +3.9539483E-01 </wgt>
<wgt id='1366'> +3.9593136E-01 </wgt>
<wgt id='1367'> +3.9275208E-01 </wgt>
<wgt id='1368'> +3.9707758E-01 </wgt>
<wgt id='1369'> +3.9707114E-01 </wgt>
<wgt id='1370'> +3.9439580E-01 </wgt>
<wgt id='1371'> +3.9585468E-01 </wgt>
<wgt id='1372'> +3.9548343E-01 </wgt>
<wgt id='1373'> +3.9803953E-01 </wgt>
<wgt id='1374'> +3.9529980E-01 </wgt>
<wgt id='1375'> +3.9675427E-01 </wgt>
<wgt id='1376'> +3.9542244E-01 </wgt>
<wgt id='1377'> +3.9568112E-01 </wgt>
<wgt id='1378'> +3.9583953E-01 </wgt>
<wgt id='1379'> +3.9662982E-01 </wgt>
<wgt id='1380'> +3.9471652E-01 </wgt>
<wgt id='1381'> +3.9320476E-01 </wgt>
<wgt id='1382'> +3.9818865E-01 </wgt>
<wgt id='1383'> +3.9532202E-01 </wgt>
<wgt id='1384'> +3.9753055E-01 </wgt>
<wgt id='1385'> +3.9567565E-01 </wgt>
<wgt id='1386'> +3.9584113E-01 </wgt>
<wgt id='1387'> +3.9579736E-01 </wgt>
<wgt id='1388'> +3.9569851E-01 </wgt>
<wgt id='1389'> +3.9552787E-01 </wgt>
<wgt id='1390'> +3.9542623E-01 </wgt>
<wgt id='1391'> +3.9529677E-01 </wgt>
<wgt id='1392'> +4.1133536E-01 </wgt>
<wgt id='1393'> +4.1130540E-01 </wgt>
<wgt id='1394'> +4.1135916E-01 </wgt>
<wgt id='1395'> +4.1176032E-01 </wgt>
<wgt id='1396'> +4.1101934E-01 </wgt>
<wgt id='1397'> +4.1277391E-01 </wgt>
<wgt id='1398'> +4.0995629E-01 </wgt>
<wgt id='1399'> +4.1135724E-01 </wgt>
<wgt id='1400'> +4.1130598E-01 </wgt>
<wgt id='1401'> +4.1020033E-01 </wgt>
<wgt id='1402'> +4.1271747E-01 </wgt>
<wgt id='1403'> +4.1125248E-01 </wgt>
<wgt id='1404'> +4.1149170E-01 </wgt>
<wgt id='1405'> +4.1059077E-01 </wgt>
<wgt id='1406'> +4.1236515E-01 </wgt>
<wgt id='1407'> +4.1145212E-01 </wgt>
<wgt id='1408'> +4.1126637E-01 </wgt>
<wgt id='1409'> +4.1290986E-01 </wgt>
<wgt id='1410'> +4.0949467E-01 </wgt>
<wgt id='1411'> +4.1010920E-01 </wgt>
<wgt id='1412'> +4.1225963E-01 </wgt>
<wgt id='1413'> +4.1105143E-01 </wgt>
<wgt id='1414'> +4.1164761E-01 </wgt>
<wgt id='1415'> +4.1376670E-01 </wgt>
<wgt id='1416'> +4.0884173E-01 </wgt>
<wgt id='1417'> +4.0826463E-01 </wgt>
<wgt id='1418'> +4.1507954E-01 </wgt>
<wgt id='1419'> +4.1178449E-01 </wgt>
<wgt id='1420'> +4.1074024E-01 </wgt>
<wgt id='1421'> +4.1043591E-01 </wgt>
<wgt id='1422'> +4.1244608E-01 </wgt>
<wgt id='1423'> +4.0776188E-01 </wgt>
<wgt id='1424'> +4.1396271E-01 </wgt>
<wgt id='1425'> +4.1185119E-01 </wgt>
<wgt id='1426'> +4.1082091E-01 </wgt>
<wgt id='1427'> +4.1129060E-01 </wgt>
<wgt id='1428'> +4.0970244E-01 </wgt>
<wgt id='1429'> +4.1053529E-01 </wgt>
<wgt id='1430'> +4.1200709E-01 </wgt>
<wgt id='1431'> +4.1036383E-01 </wgt>
<wgt id='1432'> +4.1217473E-01 </wgt>
<wgt id='1433'> +4.0887371E-01 </wgt>
<wgt id='1434'> +4.1456870E-01 </wgt>
<wgt id='1435'> +4.1143480E-01 </wgt>
<wgt id='1436'> +4.1140060E-01 </wgt>
<wgt id='1437'> +4.1048010E-01 </wgt>
<wgt id='1438'> +4.1353152E-01 </wgt>
<wgt id='1439'> +4.1448651E-01 </wgt>
<wgt id='1440'> +4.0802086E-01 </wgt>
<wgt id='1441'> +4.1226933E-01 </wgt>
<wgt id='1442'> +4.1131742E-01 </wgt>
<wgt id='1443'> +4.0547066E-01 </wgt>
<wgt id='1444'> +4.0544323E-01 </wgt>
<wgt id='1445'> +4.0550156E-01 </wgt>
<wgt id='1446'> +4.0591697E-01 </wgt>
<wgt id='1447'> +4.0515193E-01 </wgt>
<wgt id='1448'> +4.0696044E-01 </wgt>
<wgt id='1449'> +4.0409590E-01 </wgt>
<wgt id='1450'> +4.0543700E-01 </wgt>
<wgt id='1451'> +4.0550142E-01 </wgt>
<wgt id='1452'> +4.0431040E-01 </wgt>
<wgt id='1453'> +4.0658517E-01 </wgt>
<wgt id='1454'> +4.0529606E-01 </wgt>
<wgt id='1455'> +4.0583588E-01 </wgt>
<wgt id='1456'> +4.0459504E-01 </wgt>
<wgt id='1457'> +4.0702544E-01 </wgt>
<wgt id='1458'> +4.0571359E-01 </wgt>
<wgt id='1459'> +4.0532705E-01 </wgt>
<wgt id='1460'> +4.0683683E-01 </wgt>
<wgt id='1461'> +4.0379924E-01 </wgt>
<wgt id='1462'> +4.0395823E-01 </wgt>
<wgt id='1463'> +4.0677130E-01 </wgt>
<wgt id='1464'> +4.0536188E-01 </wgt>
<wgt id='1465'> +4.0561722E-01 </wgt>
<wgt id='1466'> +4.0910379E-01 </wgt>
<wgt id='1467'> +4.0298346E-01 </wgt>
<wgt id='1468'> +4.0901814E-01 </wgt>
<wgt id='1469'> +4.0199571E-01 </wgt>
<wgt id='1470'> +4.0602799E-01 </wgt>
<wgt id='1471'> +4.0494890E-01 </wgt>
<wgt id='1472'> +4.0480709E-01 </wgt>
<wgt id='1473'> +4.0628635E-01 </wgt>
<wgt id='1474'> +4.0304620E-01 </wgt>
<wgt id='1475'> +4.0813022E-01 </wgt>
<wgt id='1476'> +4.0667036E-01 </wgt>
<wgt id='1477'> +4.0448215E-01 </wgt>
<wgt id='1478'> +4.0549973E-01 </wgt>
<wgt id='1479'> +4.0368079E-01 </wgt>
<wgt id='1480'> +4.0480639E-01 </wgt>
<wgt id='1481'> +4.0599292E-01 </wgt>
<wgt id='1482'> +4.0452776E-01 </wgt>
<wgt id='1483'> +4.0639976E-01 </wgt>
<wgt id='1484'> +4.0299744E-01 </wgt>
<wgt id='1485'> +4.0863792E-01 </wgt>
<wgt id='1486'> +4.0596054E-01 </wgt>
<wgt id='1487'> +4.0529446E-01 </wgt>
<wgt id='1488'> +4.0448081E-01 </wgt>
<wgt id='1489'> +4.0787917E-01 </wgt>
<wgt id='1490'> +4.0913490E-01 </wgt>
<wgt id='1491'> +4.0239046E-01 </wgt>
<wgt id='1492'> +4.0699046E-01 </wgt>
<wgt id='1493'> +4.0534837E-01 </wgt>
<wgt id='1494'> +3.9288922E-01 </wgt>
<wgt id='1495'> +3.8484666E-01 </wgt>
<wgt id='1496'> +3.8763185E-01 </wgt>
<wgt id='1497'> +3.9017419E-01 </wgt>
<wgt id='1498'> +3.9559285E-01 </wgt>
<wgt id='1499'> +3.9282419E-01 </wgt>
<wgt id='1500'> +3.9625889E-01 </wgt>
<wgt id='1501'> +3.9572024E-01 </wgt>
<wgt id='1502'> +3.9509610E-01 </wgt>
<wgt id='1503'> +3.9442298E-01 </wgt>
<wgt id='1504'> +3.9367899E-01 </wgt>
<wgt id='1505'> +3.9198238E-01 </wgt>
<wgt id='1506'> +3.9110192E-01 </wgt>
<wgt id='1507'> +3.9018080E-01 </wgt>
<wgt id='1508'> +3.9282419E-01 </wgt>
<wgt id='1509'> +3.9310853E-01 </wgt>
<wgt id='1510'> +3.9295161E-01 </wgt>
<wgt id='1511'> +3.9274762E-01 </wgt>
<wgt id='1512'> +3.9265297E-01 </wgt>
<wgt id='1513'> +3.9339879E-01 </wgt>
<wgt id='1514'> +3.9317275E-01 </wgt>
<wgt id='1515'> +3.9368086E-01 </wgt>
<wgt id='1516'> +3.9393567E-01 </wgt>
<wgt id='1517'> +3.9285422E-01 </wgt>
<wgt id='1518'> +3.9437207E-01 </wgt>
<wgt id='1519'> +3.9299795E-01 </wgt>
<wgt id='1520'> +3.9414932E-01 </wgt>
<wgt id='1521'> +3.9262952E-01 </wgt>
<wgt id='1522'> +3.9280401E-01 </wgt>
<wgt id='1523'> +3.9395800E-01 </wgt>
<wgt id='1524'> +3.9498065E-01 </wgt>
<wgt id='1525'> +3.9270128E-01 </wgt>
<wgt id='1526'> +3.9299716E-01 </wgt>
<wgt id='1527'> +3.9387520E-01 </wgt>
<wgt id='1528'> +3.9292991E-01 </wgt>
<wgt id='1529'> +3.9389996E-01 </wgt>
<wgt id='1530'> +3.9495057E-01 </wgt>
<wgt id='1531'> +3.9250801E-01 </wgt>
<wgt id='1532'> +3.9529423E-01 </wgt>
<wgt id='1533'> +3.9077645E-01 </wgt>
<wgt id='1534'> +3.9243223E-01 </wgt>
<wgt id='1535'> +3.9406096E-01 </wgt>
<wgt id='1536'> +3.9295318E-01 </wgt>
<wgt id='1537'> +3.9386326E-01 </wgt>
<wgt id='1538'> +3.9176365E-01 </wgt>
<wgt id='1539'> +3.9728929E-01 </wgt>
<wgt id='1540'> +3.9317470E-01 </wgt>
<wgt id='1541'> +3.9321717E-01 </wgt>
<wgt id='1542'> +3.9419345E-01 </wgt>
<wgt id='1543'> +3.9157592E-01 </wgt>
<wgt id='1544'> +3.9202082E-01 </wgt>
<wgt id='1545'> +3.9577042E-01 </wgt>
<wgt id='1546'> +3.9329834E-01 </wgt>
<wgt id='1547'> +3.9316026E-01 </wgt>
<wgt id='1548'> +3.9193805E-01 </wgt>
<wgt id='1549'> +3.9350588E-01 </wgt>
<wgt id='1550'> +3.9334855E-01 </wgt>
<wgt id='1551'> +3.9326062E-01 </wgt>
<wgt id='1552'> +3.9212797E-01 </wgt>
<wgt id='1553'> +3.9423239E-01 </wgt>
<wgt id='1554'> +3.9481021E-01 </wgt>
<wgt id='1555'> +3.9092047E-01 </wgt>
<wgt id='1556'> +3.9374493E-01 </wgt>
<wgt id='1557'> +3.9210519E-01 </wgt>
<wgt id='1558'> +3.9054197E-01 </wgt>
<wgt id='1559'> +3.9594505E-01 </wgt>
<wgt id='1560'> +3.9639613E-01 </wgt>
<wgt id='1561'> +3.9207607E-01 </wgt>
<wgt id='1562'> +3.9150479E-01 </wgt>
<wgt id='1563'> +3.9490790E-01 </wgt>
<wgt id='1564'> +3.9339879E-01 </wgt>
<wgt id='1565'> +3.8970173E-01 </wgt>
<wgt id='1566'> +3.9590657E-01 </wgt>
<wgt id='1567'> +3.9265116E-01 </wgt>
<wgt id='1568'> +3.9645400E-01 </wgt>
<wgt id='1569'> +3.9583094E-01 </wgt>
<wgt id='1570'> +3.9505568E-01 </wgt>
<wgt id='1571'> +3.9422298E-01 </wgt>
<wgt id='1572'> +3.9350690E-01 </wgt>
<wgt id='1573'> +3.9157303E-01 </wgt>
<wgt id='1574'> +3.9040328E-01 </wgt>
<wgt id='1575'> +3.8943294E-01 </wgt>
<wgt id='1576'> +3.9265116E-01 </wgt>
<wgt id='1577'> +3.9273172E-01 </wgt>
<wgt id='1578'> +3.9265489E-01 </wgt>
<wgt id='1579'> +3.9263602E-01 </wgt>
<wgt id='1580'> +3.9264746E-01 </wgt>
<wgt id='1581'> +3.9383795E-01 </wgt>
<wgt id='1582'> +3.9431224E-01 </wgt>
<wgt id='1583'> +3.9481327E-01 </wgt>
<wgt id='1584'> +3.9261583E-01 </wgt>
<wgt id='1585'> +3.9478290E-01 </wgt>
<wgt id='1586'> +3.8882849E-01 </wgt>
<wgt id='1587'> +3.9234008E-01 </wgt>
<wgt id='1588'> +3.9614994E-01 </wgt>
<wgt id='1589'> +3.9367052E-01 </wgt>
<wgt id='1590'> +3.9658558E-01 </wgt>
<wgt id='1591'> +3.9300566E-01 </wgt>
<wgt id='1592'> +3.8843476E-01 </wgt>
<wgt id='1593'> +3.9466523E-01 </wgt>
<wgt id='1594'> +3.9132227E-01 </wgt>
<wgt id='1595'> +3.9353917E-01 </wgt>
<wgt id='1596'> +3.9644069E-01 </wgt>
<wgt id='1597'> +3.9539078E-01 </wgt>
<wgt id='1598'> +3.9362919E-01 </wgt>
<wgt id='1599'> +3.9364611E-01 </wgt>
<wgt id='1600'> +3.9527425E-01 </wgt>
<wgt id='1601'> +3.9253260E-01 </wgt>
<wgt id='1602'> +3.9480739E-01 </wgt>
<wgt id='1603'> +3.9420478E-01 </wgt>
<wgt id='1604'> +3.9337645E-01 </wgt>
<wgt id='1605'> +3.9355652E-01 </wgt>
<wgt id='1606'> +3.9429535E-01 </wgt>
<wgt id='1607'> +3.9426043E-01 </wgt>
<wgt id='1608'> +3.9317223E-01 </wgt>
<wgt id='1609'> +3.9431999E-01 </wgt>
<wgt id='1610'> +3.9369405E-01 </wgt>
<wgt id='1611'> +3.9689349E-01 </wgt>
<wgt id='1612'> +3.9461907E-01 </wgt>
<wgt id='1613'> +3.9470883E-01 </wgt>
<wgt id='1614'> +3.9466439E-01 </wgt>
<wgt id='1615'> +3.9445469E-01 </wgt>
<wgt id='1616'> +3.9505425E-01 </wgt>
<wgt id='1617'> +3.9496620E-01 </wgt>
<wgt id='1618'> +3.9497535E-01 </wgt>
<wgt id='1619'> +3.9491049E-01 </wgt>
<wgt id='1620'> +3.9475872E-01 </wgt>
<wgt id='1621'> +3.9482268E-01 </wgt>
<wgt id='1622'> +3.9478878E-01 </wgt>
<wgt id='1623'> +3.9343254E-01 </wgt>
<wgt id='1624'> +3.9333465E-01 </wgt>
<wgt id='1625'> +3.9293495E-01 </wgt>
<wgt id='1626'> +3.9433385E-01 </wgt>
<wgt id='1627'> +3.9348642E-01 </wgt>
<wgt id='1628'> +3.9516984E-01 </wgt>
<wgt id='1629'> +3.9460282E-01 </wgt>
<wgt id='1630'> +3.9320587E-01 </wgt>
<wgt id='1631'> +3.9504184E-01 </wgt>
<wgt id='1632'> +3.9330751E-01 </wgt>
<wgt id='1633'> +3.9567605E-01 </wgt>
<wgt id='1634'> +3.9368703E-01 </wgt>
<wgt id='1635'> +3.9336864E-01 </wgt>
<wgt id='1636'> +3.9373325E-01 </wgt>
<wgt id='1637'> +3.9354147E-01 </wgt>
<wgt id='1638'> +3.9356849E-01 </wgt>
<wgt id='1639'> +3.9505396E-01 </wgt>
<wgt id='1640'> +3.9504679E-01 </wgt>
<wgt id='1641'> +3.9375673E-01 </wgt>
<wgt id='1642'> +3.9445469E-01 </wgt>
<wgt id='1643'> +3.9455730E-01 </wgt>
<wgt id='1644'> +3.9416994E-01 </wgt>
<wgt id='1645'> +3.9434880E-01 </wgt>
<wgt id='1646'> +3.9581504E-01 </wgt>
<wgt id='1647'> +3.9382785E-01 </wgt>
<wgt id='1648'> +3.9370969E-01 </wgt>
<wgt id='1649'> +3.9563688E-01 </wgt>
<wgt id='1650'> +3.9397166E-01 </wgt>
<wgt id='1651'> +3.9404753E-01 </wgt>
<wgt id='1652'> +3.9371502E-01 </wgt>
<wgt id='1653'> +3.9394018E-01 </wgt>
<wgt id='1654'> +3.9418375E-01 </wgt>
<wgt id='1655'> +3.9518644E-01 </wgt>
<wgt id='1656'> +3.9520578E-01 </wgt>
<wgt id='1657'> +3.9395576E-01 </wgt>
<wgt id='1658'> +3.9605980E-01 </wgt>
<wgt id='1659'> +3.9629198E-01 </wgt>
<wgt id='1660'> +3.9423725E-01 </wgt>
<wgt id='1661'> +3.9444546E-01 </wgt>
<wgt id='1662'> +3.9457821E-01 </wgt>
<wgt id='1663'> +3.9495141E-01 </wgt>
<wgt id='1664'> +3.9435870E-01 </wgt>
<wgt id='1665'> +3.9459350E-01 </wgt>
<wgt id='1666'> +3.9489360E-01 </wgt>
<wgt id='1667'> +3.9441788E-01 </wgt>
<wgt id='1668'> +3.9465111E-01 </wgt>
<wgt id='1669'> +3.9456073E-01 </wgt>
<wgt id='1670'> +3.9456132E-01 </wgt>
<wgt id='1671'> +3.9438107E-01 </wgt>
<wgt id='1672'> +3.9554354E-01 </wgt>
<wgt id='1673'> +3.9482900E-01 </wgt>
<wgt id='1674'> +3.9509068E-01 </wgt>
<wgt id='1675'> +3.9458593E-01 </wgt>
<wgt id='1676'> +3.9447860E-01 </wgt>
<wgt id='1677'> +3.9495630E-01 </wgt>
<wgt id='1678'> +3.9433854E-01 </wgt>
<wgt id='1679'> +3.9482673E-01 </wgt>
<wgt id='1680'> +3.9511189E-01 </wgt>
<wgt id='1681'> +3.9493501E-01 </wgt>
<wgt id='1682'> +3.9426600E-01 </wgt>
<wgt id='1683'> +3.9416205E-01 </wgt>
<wgt id='1684'> +3.9474084E-01 </wgt>
<wgt id='1685'> +3.9490201E-01 </wgt>
<wgt id='1686'> +3.9412926E-01 </wgt>
<wgt id='1687'> +3.9463183E-01 </wgt>
<wgt id='1688'> +3.9465213E-01 </wgt>
<wgt id='1689'> +3.9453010E-01 </wgt>
<wgt id='1690'> +3.9471614E-01 </wgt>
<wgt id='1691'> +3.9436519E-01 </wgt>
<wgt id='1692'> +3.9492866E-01 </wgt>
<wgt id='1693'> +3.9465553E-01 </wgt>
<wgt id='1694'> +3.9471058E-01 </wgt>
<wgt id='1695'> +3.9450281E-01 </wgt>
<wgt id='1696'> +3.9488186E-01 </wgt>
<wgt id='1697'> +3.9438567E-01 </wgt>
<wgt id='1698'> +3.9457809E-01 </wgt>
<wgt id='1699'> +3.9433799E-01 </wgt>
<wgt id='1700'> +3.9465749E-01 </wgt>
<wgt id='1701'> +3.9474521E-01 </wgt>
<wgt id='1702'> +3.9487114E-01 </wgt>
<wgt id='1703'> +3.9422388E-01 </wgt>
<wgt id='1704'> +3.9474664E-01 </wgt>
<wgt id='1705'> +3.9457646E-01 </wgt>
<wgt id='1706'> +3.9486806E-01 </wgt>
<wgt id='1707'> +3.9469060E-01 </wgt>
<wgt id='1708'> +3.9476009E-01 </wgt>
<wgt id='1709'> +3.9471003E-01 </wgt>
<wgt id='1710'> +3.9456484E-01 </wgt>
<wgt id='1711'> +3.9489942E-01 </wgt>
<wgt id='1712'> +3.9467610E-01 </wgt>
<wgt id='1713'> +3.8739408E-01 </wgt>
<wgt id='1714'> +4.0207729E-01 </wgt>
<wgt id='1715'> +3.9132146E-01 </wgt>
<wgt id='1716'> +3.8864652E-01 </wgt>
<wgt id='1717'> +4.0291686E-01 </wgt>
<wgt id='1718'> +3.9214454E-01 </wgt>
<wgt id='1719'> +3.8485053E-01 </wgt>
<wgt id='1720'> +4.0201397E-01 </wgt>
<wgt id='1721'> +3.9583216E-01 </wgt>
<wgt id='1722'> +3.9255004E-01 </wgt>
<wgt id='1723'> +3.9599843E-01 </wgt>
<wgt id='1724'> +3.8529826E-01 </wgt>
<wgt id='1725'> +3.9054011E-01 </wgt>
<wgt id='1726'> +3.8425665E-01 </wgt>
<wgt id='1727'> +3.9407581E-01 </wgt>
<wgt id='1728'> +3.9184066E-01 </wgt>
<wgt id='1729'> +3.9236003E-01 </wgt>
<wgt id='1730'> +3.8502874E-01 </wgt>
<wgt id='1731'> +3.7452207E-01 </wgt>
<wgt id='1732'> +3.8233441E-01 </wgt>
<wgt id='1733'> +3.9003517E-01 </wgt>
<wgt id='1734'> +4.0176079E-01 </wgt>
<wgt id='1735'> +3.7753214E-01 </wgt>
<wgt id='1736'> +3.9800257E-01 </wgt>
<wgt id='1737'> +3.8992074E-01 </wgt>
<wgt id='1738'> +3.9974430E-01 </wgt>
<wgt id='1739'> +3.9895716E-01 </wgt>
<wgt id='1740'> +3.9941138E-01 </wgt>
<wgt id='1741'> +3.8511355E-01 </wgt>
<wgt id='1742'> +3.8936773E-01 </wgt>
<wgt id='1743'> +3.8586755E-01 </wgt>
<wgt id='1744'> +3.9508326E-01 </wgt>
<wgt id='1745'> +3.8805230E-01 </wgt>
<wgt id='1746'> +3.9185668E-01 </wgt>
<wgt id='1747'> +3.9714911E-01 </wgt>
<wgt id='1748'> +3.8267330E-01 </wgt>
<wgt id='1749'> +3.9307929E-01 </wgt>
<wgt id='1750'> +3.8489925E-01 </wgt>
<wgt id='1751'> +3.8936179E-01 </wgt>
<wgt id='1752'> +3.9292345E-01 </wgt>
<wgt id='1753'> +3.9084012E-01 </wgt>
<wgt id='1754'> +3.8569552E-01 </wgt>
<wgt id='1755'> +3.9104891E-01 </wgt>
<wgt id='1756'> +4.0349405E-01 </wgt>
<wgt id='1757'> +3.8458786E-01 </wgt>
<wgt id='1758'> +3.9623653E-01 </wgt>
<wgt id='1759'> +3.9585683E-01 </wgt>
<wgt id='1760'> +3.8605322E-01 </wgt>
<wgt id='1761'> +3.8575895E-01 </wgt>
<wgt id='1762'> +3.9407581E-01 </wgt>
<wgt id='1763'> +3.9654559E-01 </wgt>
<wgt id='1764'> +3.9942501E-01 </wgt>
<wgt id='1765'> +4.0077781E-01 </wgt>
<wgt id='1766'> +3.9130465E-01 </wgt>
<wgt id='1767'> +3.8183516E-01 </wgt>
<wgt id='1768'> +3.7827534E-01 </wgt>
<wgt id='1769'> +4.0046828E-01 </wgt>
<wgt id='1770'> +3.7792456E-01 </wgt>
<wgt id='1771'> +3.8740358E-01 </wgt>
<wgt id='1772'> +3.8565017E-01 </wgt>
<wgt id='1773'> +3.9370654E-01 </wgt>
<wgt id='1774'> +3.8671237E-01 </wgt>
<wgt id='1775'> +3.9359954E-01 </wgt>
<wgt id='1776'> +3.9653991E-01 </wgt>
<wgt id='1777'> +3.8822998E-01 </wgt>
<wgt id='1778'> +3.9012473E-01 </wgt>
<wgt id='1779'> +3.8987505E-01 </wgt>
<wgt id='1780'> +4.0509767E-01 </wgt>
<wgt id='1781'> +3.9517110E-01 </wgt>
<wgt id='1782'> +3.7746699E-01 </wgt>
<wgt id='1783'> +3.9277043E-01 </wgt>
<wgt id='1784'> +3.8608756E-01 </wgt>
<wgt id='1785'> +3.9227336E-01 </wgt>
<wgt id='1786'> +3.8714108E-01 </wgt>
<wgt id='1787'> +3.9665333E-01 </wgt>
<wgt id='1788'> +3.9216877E-01 </wgt>
<wgt id='1789'> +3.9240017E-01 </wgt>
<wgt id='1790'> +3.9398934E-01 </wgt>
<wgt id='1791'> +3.9310836E-01 </wgt>
<wgt id='1792'> +3.9701051E-01 </wgt>
<wgt id='1793'> +3.8951979E-01 </wgt>
<wgt id='1794'> +3.8102538E-01 </wgt>
<wgt id='1795'> +3.9432474E-01 </wgt>
<wgt id='1796'> +3.9345552E-01 </wgt>
<wgt id='1797'> +4.0178986E-01 </wgt>
<wgt id='1798'> +3.8732331E-01 </wgt>
<wgt id='1799'> +3.8875763E-01 </wgt>
<wgt id='1800'> +3.9242207E-01 </wgt>
<wgt id='1801'> +3.9092347E-01 </wgt>
<wgt id='1802'> +3.9240057E-01 </wgt>
<wgt id='1803'> +3.9264405E-01 </wgt>
<wgt id='1804'> +3.9913039E-01 </wgt>
<wgt id='1805'> +3.9187502E-01 </wgt>
<wgt id='1806'> +3.9461348E-01 </wgt>
<wgt id='1807'> +3.9367643E-01 </wgt>
<wgt id='1808'> +3.7910026E-01 </wgt>
<wgt id='1809'> +3.9618005E-01 </wgt>
<wgt id='1810'> +3.8917018E-01 </wgt>
<wgt id='1811'> +3.9336590E-01 </wgt>
<wgt id='1812'> +3.8732089E-01 </wgt>
<wgt id='1813'> +3.9557531E-01 </wgt>
<wgt id='1814'> +3.8643493E-01 </wgt>
<wgt id='1815'> +3.9764289E-01 </wgt>
<wgt id='1816'> +4.0113333E-01 </wgt>
<wgt id='1817'> +4.1236183E-01 </wgt>
<wgt id='1818'> +4.0563146E-01 </wgt>
<wgt id='1819'> +4.1396291E-01 </wgt>
<wgt id='1820'> +3.9663748E-01 </wgt>
<wgt id='1821'> +4.1950614E-01 </wgt>
<wgt id='1822'> +4.0362307E-01 </wgt>
<wgt id='1823'> +3.9786246E-01 </wgt>
<wgt id='1824'> +3.9539154E-01 </wgt>
<wgt id='1825'> +4.0191445E-01 </wgt>
<wgt id='1826'> +4.0846017E-01 </wgt>
<wgt id='1827'> +3.9321912E-01 </wgt>
<wgt id='1828'> +4.0420381E-01 </wgt>
<wgt id='1829'> +3.9581949E-01 </wgt>
<wgt id='1830'> +4.0386125E-01 </wgt>
<wgt id='1831'> +4.0595454E-01 </wgt>
<wgt id='1832'> +4.0169133E-01 </wgt>
<wgt id='1833'> +4.0383259E-01 </wgt>
<wgt id='1834'> +4.0035746E-01 </wgt>
<wgt id='1835'> +3.9772528E-01 </wgt>
<wgt id='1836'> +4.0483927E-01 </wgt>
<wgt id='1837'> +4.0348210E-01 </wgt>
<wgt id='1838'> +3.9798073E-01 </wgt>
<wgt id='1839'> +4.0686823E-01 </wgt>
<wgt id='1840'> +4.0062928E-01 </wgt>
<wgt id='1841'> +3.9761764E-01 </wgt>
<wgt id='1842'> +4.0107450E-01 </wgt>
<wgt id='1843'> +3.9823656E-01 </wgt>
<wgt id='1844'> +4.0067509E-01 </wgt>
<wgt id='1845'> +4.0765945E-01 </wgt>
<wgt id='1846'> +4.0617178E-01 </wgt>
<wgt id='1847'> +3.9591755E-01 </wgt>
<wgt id='1848'> +3.9739568E-01 </wgt>
<wgt id='1849'> +3.9204304E-01 </wgt>
<wgt id='1850'> +4.0388889E-01 </wgt>
<wgt id='1851'> +3.9987359E-01 </wgt>
<wgt id='1852'> +3.9745419E-01 </wgt>
<wgt id='1853'> +3.9706544E-01 </wgt>
<wgt id='1854'> +4.0001009E-01 </wgt>
<wgt id='1855'> +4.0268610E-01 </wgt>
<wgt id='1856'> +3.9420157E-01 </wgt>
<wgt id='1857'> +4.0549443E-01 </wgt>
<wgt id='1858'> +4.0271689E-01 </wgt>
<wgt id='1859'> +3.9690910E-01 </wgt>
<wgt id='1860'> +4.0452243E-01 </wgt>
<wgt id='1861'> +4.0401150E-01 </wgt>
<wgt id='1862'> +4.0719969E-01 </wgt>
<wgt id='1863'> +3.9983738E-01 </wgt>
<wgt id='1864'> +4.0226511E-01 </wgt>
<wgt id='1865'> +4.0199463E-01 </wgt>
<wgt id='1866'> +4.0109507E-01 </wgt>
<wgt id='1867'> +4.0149375E-01 </wgt>
<wgt id='1868'> +4.0432424E-01 </wgt>
<wgt id='1869'> +4.0941333E-01 </wgt>
<wgt id='1870'> +3.9359669E-01 </wgt>
<wgt id='1871'> +3.9784335E-01 </wgt>
<wgt id='1872'> +4.0541399E-01 </wgt>
<wgt id='1873'> +3.9900882E-01 </wgt>
<wgt id='1874'> +4.0295347E-01 </wgt>
<wgt id='1875'> +4.0595809E-01 </wgt>
<wgt id='1876'> +4.0138136E-01 </wgt>
<wgt id='1877'> +3.9972450E-01 </wgt>
<wgt id='1878'> +4.0735076E-01 </wgt>
<wgt id='1879'> +3.9725629E-01 </wgt>
<wgt id='1880'> +3.9388158E-01 </wgt>
<wgt id='1881'> +3.9009945E-01 </wgt>
<wgt id='1882'> +3.9601384E-01 </wgt>
<wgt id='1883'> +4.1220787E-01 </wgt>
<wgt id='1884'> +3.9926739E-01 </wgt>
<wgt id='1885'> +3.9373841E-01 </wgt>
<wgt id='1886'> +3.8883839E-01 </wgt>
<wgt id='1887'> +4.0014948E-01 </wgt>
<wgt id='1888'> +4.0481848E-01 </wgt>
<wgt id='1889'> +4.0789361E-01 </wgt>
<wgt id='1890'> +4.1119595E-01 </wgt>
<wgt id='1891'> +4.0282022E-01 </wgt>
<wgt id='1892'> +4.0358488E-01 </wgt>
<wgt id='1893'> +3.9463459E-01 </wgt>
<wgt id='1894'> +3.9912054E-01 </wgt>
<wgt id='1895'> +4.0135643E-01 </wgt>
<wgt id='1896'> +3.9391982E-01 </wgt>
<wgt id='1897'> +4.0025946E-01 </wgt>
<wgt id='1898'> +4.0052254E-01 </wgt>
<wgt id='1899'> +4.0187968E-01 </wgt>
<wgt id='1900'> +4.0054115E-01 </wgt>
<wgt id='1901'> +4.0354513E-01 </wgt>
<wgt id='1902'> +3.9594077E-01 </wgt>
<wgt id='1903'> +4.0678732E-01 </wgt>
<wgt id='1904'> +4.0502247E-01 </wgt>
<wgt id='1905'> +4.0055521E-01 </wgt>
<wgt id='1906'> +3.9603394E-01 </wgt>
<wgt id='1907'> +3.9725775E-01 </wgt>
<wgt id='1908'> +3.9397297E-01 </wgt>
<wgt id='1909'> +4.0127843E-01 </wgt>
<wgt id='1910'> +4.0877803E-01 </wgt>
<wgt id='1911'> +3.9705382E-01 </wgt>
<wgt id='1912'> +3.9544085E-01 </wgt>
<wgt id='1913'> +3.9894594E-01 </wgt>
<wgt id='1914'> +3.9854574E-01 </wgt>
<wgt id='1915'> +3.9940707E-01 </wgt>
<wgt id='1916'> +3.9524024E-01 </wgt>
<wgt id='1917'> +3.9119593E-01 </wgt>
<wgt id='1918'> +3.9759134E-01 </wgt>
<wgt id='1919'> +4.0113333E-01 </wgt>
<wgt id='1920'> +4.1236183E-01 </wgt>
<wgt id='1921'> +4.0563146E-01 </wgt>
<wgt id='1922'> +4.1396291E-01 </wgt>
<wgt id='1923'> +3.9663748E-01 </wgt>
<wgt id='1924'> +4.1950614E-01 </wgt>
<wgt id='1925'> +4.0362307E-01 </wgt>
<wgt id='1926'> +3.9786246E-01 </wgt>
<wgt id='1927'> +3.9539154E-01 </wgt>
<wgt id='1928'> +4.0191445E-01 </wgt>
<wgt id='1929'> +4.0846017E-01 </wgt>
<wgt id='1930'> +3.9321912E-01 </wgt>
<wgt id='1931'> +4.0420381E-01 </wgt>
<wgt id='1932'> +3.9581949E-01 </wgt>
<wgt id='1933'> +4.0386125E-01 </wgt>
<wgt id='1934'> +4.0595454E-01 </wgt>
<wgt id='1935'> +4.0169133E-01 </wgt>
<wgt id='1936'> +4.0383259E-01 </wgt>
<wgt id='1937'> +4.0035746E-01 </wgt>
<wgt id='1938'> +3.9772528E-01 </wgt>
<wgt id='1939'> +4.0483927E-01 </wgt>
<wgt id='1940'> +4.0348210E-01 </wgt>
<wgt id='1941'> +3.9798073E-01 </wgt>
<wgt id='1942'> +4.0686823E-01 </wgt>
<wgt id='1943'> +4.0062928E-01 </wgt>
<wgt id='1944'> +3.9761764E-01 </wgt>
<wgt id='1945'> +4.0107450E-01 </wgt>
<wgt id='1946'> +3.9823656E-01 </wgt>
<wgt id='1947'> +4.0067509E-01 </wgt>
<wgt id='1948'> +4.0765945E-01 </wgt>
<wgt id='1949'> +4.0617178E-01 </wgt>
<wgt id='1950'> +3.9591755E-01 </wgt>
<wgt id='1951'> +3.9739568E-01 </wgt>
<wgt id='1952'> +3.9204304E-01 </wgt>
<wgt id='1953'> +4.0388889E-01 </wgt>
<wgt id='1954'> +3.9987359E-01 </wgt>
<wgt id='1955'> +3.9745419E-01 </wgt>
<wgt id='1956'> +3.9706544E-01 </wgt>
<wgt id='1957'> +4.0001009E-01 </wgt>
<wgt id='1958'> +4.0268610E-01 </wgt>
<wgt id='1959'> +3.9420157E-01 </wgt>
<wgt id='1960'> +4.0549443E-01 </wgt>
<wgt id='1961'> +4.0271689E-01 </wgt>
<wgt id='1962'> +3.9690910E-01 </wgt>
<wgt id='1963'> +4.0452243E-01 </wgt>
<wgt id='1964'> +4.0401150E-01 </wgt>
<wgt id='1965'> +4.0719969E-01 </wgt>
<wgt id='1966'> +3.9983738E-01 </wgt>
<wgt id='1967'> +4.0226511E-01 </wgt>
<wgt id='1968'> +4.0199463E-01 </wgt>
<wgt id='1969'> +4.0109507E-01 </wgt>
<wgt id='1970'> +4.0149375E-01 </wgt>
<wgt id='1971'> +4.0432424E-01 </wgt>
<wgt id='1972'> +4.0941333E-01 </wgt>
<wgt id='1973'> +3.9359669E-01 </wgt>
<wgt id='1974'> +3.9784335E-01 </wgt>
<wgt id='1975'> +4.0541399E-01 </wgt>
<wgt id='1976'> +3.9900882E-01 </wgt>
<wgt id='1977'> +4.0295347E-01 </wgt>
<wgt id='1978'> +4.0595809E-01 </wgt>
<wgt id='1979'> +4.0138136E-01 </wgt>
<wgt id='1980'> +3.9972450E-01 </wgt>
<wgt id='1981'> +4.0735076E-01 </wgt>
<wgt id='1982'> +3.9725629E-01 </wgt>
<wgt id='1983'> +3.9388158E-01 </wgt>
<wgt id='1984'> +3.9009945E-01 </wgt>
<wgt id='1985'> +3.9601384E-01 </wgt>
<wgt id='1986'> +4.1220787E-01 </wgt>
<wgt id='1987'> +3.9926739E-01 </wgt>
<wgt id='1988'> +3.9373841E-01 </wgt>
<wgt id='1989'> +3.8883839E-01 </wgt>
<wgt id='1990'> +4.0014948E-01 </wgt>
<wgt id='1991'> +4.0481848E-01 </wgt>
<wgt id='1992'> +4.0789361E-01 </wgt>
<wgt id='1993'> +4.1119595E-01 </wgt>
<wgt id='1994'> +4.0282022E-01 </wgt>
<wgt id='1995'> +4.0358488E-01 </wgt>
<wgt id='1996'> +3.9463459E-01 </wgt>
<wgt id='1997'> +3.9912054E-01 </wgt>
<wgt id='1998'> +4.0135643E-01 </wgt>
<wgt id='1999'> +3.9391982E-01 </wgt>
<wgt id='2000'> +4.0025946E-01 </wgt>
<wgt id='2001'> +4.0052254E-01 </wgt>
<wgt id='2002'> +4.0187968E-01 </wgt>
<wgt id='2003'> +4.0054115E-01 </wgt>
<wgt id='2004'> +4.0354513E-01 </wgt>
<wgt id='2005'> +3.9594077E-01 </wgt>
<wgt id='2006'> +4.0678732E-01 </wgt>
<wgt id='2007'> +4.0502247E-01 </wgt>
<wgt id='2008'> +4.0055521E-01 </wgt>
<wgt id='2009'> +3.9603394E-01 </wgt>
<wgt id='2010'> +3.9725775E-01 </wgt>
<wgt id='2011'> +3.9397297E-01 </wgt>
<wgt id='2012'> +4.0127843E-01 </wgt>
<wgt id='2013'> +4.0877803E-01 </wgt>
<wgt id='2014'> +3.9705382E-01 </wgt>
<wgt id='2015'> +3.9544085E-01 </wgt>
<wgt id='2016'> +3.9894594E-01 </wgt>
<wgt id='2017'> +3.9854574E-01 </wgt>
<wgt id='2018'> +3.9940707E-01 </wgt>
<wgt id='2019'> +3.9524024E-01 </wgt>
<wgt id='2020'> +3.9872774E-01 </wgt>
<wgt id='2021'> +4.0284527E-01 </wgt>
<wgt id='2022'> +3.9604229E-01 </wgt>
</rwgt>
</event>
<event>
13      1 +3.9556008E-01 1.17184500e+02 7.81860800e-03 1.26748300e-01
        2 -1    0    0  501    0 +0.0000000000e+00 +0.0000000000e+00 +7.9114545360e+02 7.9114545361e+02 2.5500000000e-03 0.0000e+00 -1.0000e+00
       21 -1    0    0  502  503 +0.0000000000e+00 +0.0000000000e+00 -2.7370897977e+02 2.7370897977e+02 0.0000000000e+00 0.0000e+00 -1.0000e+00
  8000001  2    1    2  502    0 -1.5704856491e+00 +4.8544863775e+00 +2.5080943857e+02 6.5033344557e+02 6.0000181957e+02 0.0000e+00 0.0000e+00
        1  1    1    2  501    0 -4.5196641188e-01 +1.7512394546e+01 +3.3856318950e+02 3.3901610809e+02 5.0400000000e-03 0.0000e+00 -1.0000e+00
       -5  1    1    2    0  503 +2.0224520610e+00 -2.2366880924e+01 -7.1936154235e+01 7.5504879720e+01 4.6700000000e+00 0.0000e+00 1.0000e+00
        6  2    3    3  502    0 -2.3139037039e+02 +1.1030281310e+02 +2.9295501884e+01 3.0073310622e+02 1.5451200814e+02 0.0000e+00 0.0000e+00
        5  1    6    6  502    0 -1.8206700837e+02 +6.7999780723e+01 +2.7134384001e+01 1.9629174565e+02 4.6700000000e+00 0.0000e+00 -1.0000e+00
       24  2    6    6    0    0 -4.9323362018e+01 +4.2303032378e+01 +2.1611178831e+00 1.0444136056e+02 8.1737303461e+01 0.0000e+00 0.0000e+00
       12  1    8    8    0    0 +4.1572914158e+00 -6.2783689587e+00 -2.5869148727e+01 2.6942788359e+01 0.0000000000e+00 0.0000e+00 -1.0000e+00
      -11  1    8    8    0    0 -5.3480653434e+01 +4.8581401337e+01 +2.8030266610e+01 7.7498572206e+01 5.1100000000e-04 0.0000e+00 1.0000e+00
       23  2    3    3    0    0 +2.2981988474e+02 -1.0544832672e+02 +2.2151393668e+02 3.4960033935e+02 9.5997104632e+01 0.0000e+00 0.0000e+00
        4  1   11   11  504    0 +5.2489649032e+01 -1.7440489238e+01 +1.0811958072e+02 1.2145283264e+02 1.2700000000e+00 0.0000e+00 -1.0000e+00
       -4  1   11   11    0  504 +1.7733023571e+02 -8.8007837486e+01 +1.1339435596e+02 2.2814750671e+02 1.2700000000e+00 0.0000e+00 1.0000e+00
<mgrwt>
<rscale>  1 0.45308551e+02</rscale>
<asrwt>0</asrwt>
<pdfrwt beam="1">  1       21 0.42109074e-01 0.11718451e+03</pdfrwt>
<pdfrwt beam="2">  1        2 0.12171468e+00 0.17518226e+02</pdfrwt>
<totfact> 0.32157588e+03</totfact>
</mgrwt>
<rwgt>
<wgt id='1001'> +3.9556008E-01 </wgt>
<wgt id='1002'> +2.2666502E-01 </wgt>
<wgt id='1003'> +2.2662996E-01 </wgt>
<wgt id='1004'> +2.6056313E-01 </wgt>
<wgt id='1005'> +2.0634608E-01 </wgt>
<wgt id='1006'> +3.5194349E-01 </wgt>
<wgt id='1007'> +2.0910810E-01 </wgt>
<wgt id='1008'> +2.0907739E-01 </wgt>
<wgt id='1009'> +2.3860377E-01 </wgt>
<wgt id='1010'> +1.9123515E-01 </wgt>
<wgt id='1011'> +4.5206718E-01 </wgt>
<wgt id='1012'> +2.4752790E-01 </wgt>
<wgt id='1013'> +2.4748732E-01 </wgt>
<wgt id='1014'> +2.8711262E-01 </wgt>
<wgt id='1015'> +2.2411615E-01 </wgt>
<wgt id='1016'> +3.7451540E-01 </wgt>
<wgt id='1017'> +2.1560875E-01 </wgt>
<wgt id='1018'> +2.1557579E-01 </wgt>
<wgt id='1019'> +2.4748732E-01 </wgt>
<wgt id='1020'> +1.9646308E-01 </wgt>
<wgt id='1021'> +3.3321930E-01 </wgt>
<wgt id='1022'> +1.9890823E-01 </wgt>
<wgt id='1023'> +1.9887937E-01 </wgt>
<wgt id='1024'> +2.2662996E-01 </wgt>
<wgt id='1025'> +1.8207590E-01 </wgt>
<wgt id='1026'> +4.2801619E-01 </wgt>
<wgt id='1027'> +2.3545399E-01 </wgt>
<wgt id='1028'> +2.3541581E-01 </wgt>
<wgt id='1029'> +2.7270449E-01 </wgt>
<wgt id='1030'> +2.1338205E-01 </wgt>
<wgt id='1031'> +4.1739246E-01 </wgt>
<wgt id='1032'> +2.3864096E-01 </wgt>
<wgt id='1033'> +2.3860377E-01 </wgt>
<wgt id='1034'> +2.7443660E-01 </wgt>
<wgt id='1035'> +2.1702066E-01 </wgt>
<wgt id='1036'> +3.7136853E-01 </wgt>
<wgt id='1037'> +2.2015642E-01 </wgt>
<wgt id='1038'> +2.2012383E-01 </wgt>
<wgt id='1039'> +2.5130804E-01 </wgt>
<wgt id='1040'> +2.0112803E-01 </wgt>
<wgt id='1041'> +4.7701841E-01 </wgt>
<wgt id='1042'> +2.6060615E-01 </wgt>
<wgt id='1043'> +2.6056313E-01 </wgt>
<wgt id='1044'> +3.0239970E-01 </wgt>
<wgt id='1045'> +2.3571001E-01 </wgt>
<wgt id='1046'> +3.9556008E-01 </wgt>
<wgt id='1047'> +3.9556008E-01 </wgt>
<wgt id='1048'> +3.9556008E-01 </wgt>
<wgt id='1049'> +3.9624078E-01 </wgt>
<wgt id='1050'> +3.9484004E-01 </wgt>
<wgt id='1051'> +3.9547914E-01 </wgt>
<wgt id='1052'> +3.9557278E-01 </wgt>
<wgt id='1053'> +3.9710880E-01 </wgt>
<wgt id='1054'> +3.9522780E-01 </wgt>
<wgt id='1055'> +3.9596124E-01 </wgt>
<wgt id='1056'> +3.9600551E-01 </wgt>
<wgt id='1057'> +3.9611796E-01 </wgt>
<wgt id='1058'> +3.9525730E-01 </wgt>
<wgt id='1059'> +3.9490123E-01 </wgt>
<wgt id='1060'> +3.9507857E-01 </wgt>
<wgt id='1061'> +3.9567882E-01 </wgt>
<wgt id='1062'> +3.9684593E-01 </wgt>
<wgt id='1063'> +3.9604847E-01 </wgt>
<wgt id='1064'> +3.9577353E-01 </wgt>
<wgt id='1065'> +3.9608802E-01 </wgt>
<wgt id='1066'> +3.9479787E-01 </wgt>
<wgt id='1067'> +3.9670619E-01 </wgt>
<wgt id='1068'> +3.9412544E-01 </wgt>
<wgt id='1069'> +3.9513402E-01 </wgt>
<wgt id='1070'> +3.9583400E-01 </wgt>
<wgt id='1071'> +3.9524300E-01 </wgt>
<wgt id='1072'> +3.9605409E-01 </wgt>
<wgt id='1073'> +3.9562066E-01 </wgt>
<wgt id='1074'> +3.9502964E-01 </wgt>
<wgt id='1075'> +3.9469246E-01 </wgt>
<wgt id='1076'> +3.9634801E-01 </wgt>
<wgt id='1077'> +3.9656406E-01 </wgt>
<wgt id='1078'> +3.9539760E-01 </wgt>
<wgt id='1079'> +3.9716647E-01 </wgt>
<wgt id='1080'> +3.9542707E-01 </wgt>
<wgt id='1081'> +3.9615355E-01 </wgt>
<wgt id='1082'> +3.9618279E-01 </wgt>
<wgt id='1083'> +3.9536416E-01 </wgt>
<wgt id='1084'> +3.9496149E-01 </wgt>
<wgt id='1085'> +3.9630176E-01 </wgt>
<wgt id='1086'> +3.9530128E-01 </wgt>
<wgt id='1087'> +3.9553096E-01 </wgt>
<wgt id='1088'> +3.9650639E-01 </wgt>
<wgt id='1089'> +3.9711303E-01 </wgt>
<wgt id='1090'> +3.9616054E-01 </wgt>
<wgt id='1091'> +3.9542288E-01 </wgt>
<wgt id='1092'> +3.9516367E-01 </wgt>
<wgt id='1093'> +3.9543356E-01 </wgt>
<wgt id='1094'> +3.9522620E-01 </wgt>
<wgt id='1095'> +3.9506945E-01 </wgt>
<wgt id='1096'> +3.9441019E-01 </wgt>
<wgt id='1097'> +3.9589691E-01 </wgt>
<wgt id='1098'> +3.9486424E-01 </wgt>
<wgt id='1099'> +3.9545002E-01 </wgt>
<wgt id='1100'> +3.9613200E-01 </wgt>
<wgt id='1101'> +3.9580560E-01 </wgt>
<wgt id='1102'> +3.9598375E-01 </wgt>
<wgt id='1103'> +3.9583411E-01 </wgt>
<wgt id='1104'> +3.9578880E-01 </wgt>
<wgt id='1105'> +3.9619584E-01 </wgt>
<wgt id='1106'> +3.9569368E-01 </wgt>
<wgt id='1107'> +3.9604061E-01 </wgt>
<wgt id='1108'> +3.9537805E-01 </wgt>
<wgt id='1109'> +3.9570075E-01 </wgt>
<wgt id='1110'> +3.9554616E-01 </wgt>
<wgt id='1111'> +3.9525107E-01 </wgt>
<wgt id='1112'> +3.9521228E-01 </wgt>
<wgt id='1113'> +3.9585456E-01 </wgt>
<wgt id='1114'> +3.9558889E-01 </wgt>
<wgt id='1115'> +3.9562215E-01 </wgt>
<wgt id='1116'> +3.9542713E-01 </wgt>
<wgt id='1117'> +3.9572053E-01 </wgt>
<wgt id='1118'> +3.9538484E-01 </wgt>
<wgt id='1119'> +3.9545890E-01 </wgt>
<wgt id='1120'> +3.9584946E-01 </wgt>
<wgt id='1121'> +3.9510015E-01 </wgt>
<wgt id='1122'> +3.9563007E-01 </wgt>
<wgt id='1123'> +3.9532138E-01 </wgt>
<wgt id='1124'> +3.9573762E-01 </wgt>
<wgt id='1125'> +3.9611764E-01 </wgt>
<wgt id='1126'> +3.9574400E-01 </wgt>
<wgt id='1127'> +3.9552178E-01 </wgt>
<wgt id='1128'> +3.9572988E-01 </wgt>
<wgt id='1129'> +3.9519140E-01 </wgt>
<wgt id='1130'> +3.9549711E-01 </wgt>
<wgt id='1131'> +3.9553803E-01 </wgt>
<wgt id='1132'> +3.9572606E-01 </wgt>
<wgt id='1133'> +3.9561306E-01 </wgt>
<wgt id='1134'> +3.9546167E-01 </wgt>
<wgt id='1135'> +3.9529560E-01 </wgt>
<wgt id='1136'> +3.9528363E-01 </wgt>
<wgt id='1137'> +3.9550352E-01 </wgt>
<wgt id='1138'> +3.9568176E-01 </wgt>
<wgt id='1139'> +3.9562549E-01 </wgt>
<wgt id='1140'> +3.9576547E-01 </wgt>
<wgt id='1141'> +3.9563158E-01 </wgt>
<wgt id='1142'> +3.9550821E-01 </wgt>
<wgt id='1143'> +3.9581078E-01 </wgt>
<wgt id='1144'> +3.9551083E-01 </wgt>
<wgt id='1145'> +3.9559978E-01 </wgt>
<wgt id='1146'> +3.9561629E-01 </wgt>
<wgt id='1147'> +3.9565794E-01 </wgt>
<wgt id='1148'> +3.9556008E-01 </wgt>
<wgt id='1149'> +3.9968879E-01 </wgt>
<wgt id='1150'> +4.0257173E-01 </wgt>
<wgt id='1151'> +4.0489895E-01 </wgt>
<wgt id='1152'> +4.0450248E-01 </wgt>
<wgt id='1153'> +3.9156138E-01 </wgt>
<wgt id='1154'> +3.9441951E-01 </wgt>
<wgt id='1155'> +4.0416251E-01 </wgt>
<wgt id='1156'> +4.0690469E-01 </wgt>
<wgt id='1157'> +4.0121043E-01 </wgt>
<wgt id='1158'> +4.0120003E-01 </wgt>
<wgt id='1159'> +3.8786336E-01 </wgt>
<wgt id='1160'> +4.0103382E-01 </wgt>
<wgt id='1161'> +4.0044332E-01 </wgt>
<wgt id='1162'> +3.9611505E-01 </wgt>
<wgt id='1163'> +4.0562231E-01 </wgt>
<wgt id='1164'> +4.0024012E-01 </wgt>
<wgt id='1165'> +4.0029755E-01 </wgt>
<wgt id='1166'> +4.0139659E-01 </wgt>
<wgt id='1167'> +4.0031459E-01 </wgt>
<wgt id='1168'> +3.9968116E-01 </wgt>
<wgt id='1169'> +3.9448297E-01 </wgt>
<wgt id='1170'> +3.9639822E-01 </wgt>
<wgt id='1171'> +3.9565852E-01 </wgt>
<wgt id='1172'> +4.0164033E-01 </wgt>
<wgt id='1173'> +3.9402036E-01 </wgt>
<wgt id='1174'> +4.0467618E-01 </wgt>
<wgt id='1175'> +4.0683506E-01 </wgt>
<wgt id='1176'> +3.8244974E-01 </wgt>
<wgt id='1177'> +4.0718301E-01 </wgt>
<wgt id='1178'> +4.0243205E-01 </wgt>
<wgt id='1179'> +4.0536611E-01 </wgt>
<wgt id='1180'> +4.0329297E-01 </wgt>
<wgt id='1181'> +4.0172954E-01 </wgt>
<wgt id='1182'> +4.0090229E-01 </wgt>
<wgt id='1183'> +3.9554564E-01 </wgt>
<wgt id='1184'> +3.9445216E-01 </wgt>
<wgt id='1185'> +4.0540024E-01 </wgt>
<wgt id='1186'> +4.0099927E-01 </wgt>
<wgt id='1187'> +3.9725402E-01 </wgt>
<wgt id='1188'> +4.0382024E-01 </wgt>
<wgt id='1189'> +4.0131627E-01 </wgt>
<wgt id='1190'> +4.0184336E-01 </wgt>
<wgt id='1191'> +4.0020907E-01 </wgt>
<wgt id='1192'> +3.9410913E-01 </wgt>
<wgt id='1193'> +3.9865403E-01 </wgt>
<wgt id='1194'> +4.0313107E-01 </wgt>
<wgt id='1195'> +3.9950685E-01 </wgt>
<wgt id='1196'> +4.0118719E-01 </wgt>
<wgt id='1197'> +4.0041111E-01 </wgt>
<wgt id='1198'> +4.0632817E-01 </wgt>
<wgt id='1199'> +3.9693822E-01 </wgt>
<wgt id='1200'> +4.0075306E-01 </wgt>
<wgt id='1201'> +3.9987860E-01 </wgt>
<wgt id='1202'> +3.9958176E-01 </wgt>
<wgt id='1203'> +3.9989689E-01 </wgt>
<wgt id='1204'> +4.0424738E-01 </wgt>
<wgt id='1205'> +3.9760421E-01 </wgt>
<wgt id='1206'> +4.0071042E-01 </wgt>
<wgt id='1207'> +4.0231203E-01 </wgt>
<wgt id='1208'> +4.0552472E-01 </wgt>
<wgt id='1209'> +4.0700610E-01 </wgt>
<wgt id='1210'> +3.9468020E-01 </wgt>
<wgt id='1211'> +3.9781495E-01 </wgt>
<wgt id='1212'> +3.9118230E-01 </wgt>
<wgt id='1213'> +4.0398334E-01 </wgt>
<wgt id='1214'> +4.0149754E-01 </wgt>
<wgt id='1215'> +4.1279328E-01 </wgt>
<wgt id='1216'> +3.9815565E-01 </wgt>
<wgt id='1217'> +4.0231486E-01 </wgt>
<wgt id='1218'> +4.0338445E-01 </wgt>
<wgt id='1219'> +3.9276853E-01 </wgt>
<wgt id='1220'> +4.0035123E-01 </wgt>
<wgt id='1221'> +3.9874292E-01 </wgt>
<wgt id='1222'> +3.9532677E-01 </wgt>
<wgt id='1223'> +3.9656187E-01 </wgt>
<wgt id='1224'> +4.0144765E-01 </wgt>
<wgt id='1225'> +4.0708084E-01 </wgt>
<wgt id='1226'> +3.8917956E-01 </wgt>
<wgt id='1227'> +4.0808583E-01 </wgt>
<wgt id='1228'> +3.9843685E-01 </wgt>
<wgt id='1229'> +3.9580446E-01 </wgt>
<wgt id='1230'> +3.9078475E-01 </wgt>
<wgt id='1231'> +4.0029755E-01 </wgt>
<wgt id='1232'> +3.8686547E-01 </wgt>
<wgt id='1233'> +3.9730589E-01 </wgt>
<wgt id='1234'> +4.0494156E-01 </wgt>
<wgt id='1235'> +3.9795603E-01 </wgt>
<wgt id='1236'> +4.0089617E-01 </wgt>
<wgt id='1237'> +3.9259070E-01 </wgt>
<wgt id='1238'> +3.8654152E-01 </wgt>
<wgt id='1239'> +4.0231940E-01 </wgt>
<wgt id='1240'> +4.0316485E-01 </wgt>
<wgt id='1241'> +4.0113689E-01 </wgt>
<wgt id='1242'> +3.9666241E-01 </wgt>
<wgt id='1243'> +3.9852579E-01 </wgt>
<wgt id='1244'> +3.9576876E-01 </wgt>
<wgt id='1245'> +4.0281550E-01 </wgt>
<wgt id='1246'> +3.9375314E-01 </wgt>
<wgt id='1247'> +4.0395610E-01 </wgt>
<wgt id='1248'> +4.0178901E-01 </wgt>
<wgt id='1249'> +3.9976067E-01 </wgt>
<wgt id='1250'> +3.8355260E-01 </wgt>
<wgt id='1251'> +3.8106767E-01 </wgt>
<wgt id='1252'> +3.9121486E-01 </wgt>
<wgt id='1253'> +3.8665103E-01 </wgt>
<wgt id='1254'> +3.2981995E-01 </wgt>
<wgt id='1255'> +3.8735797E-01 </wgt>
<wgt id='1256'> +3.8861766E-01 </wgt>
<wgt id='1257'> +3.8662013E-01 </wgt>
<wgt id='1258'> +3.8634275E-01 </wgt>
<wgt id='1259'> +3.8787673E-01 </wgt>
<wgt id='1260'> +3.8776836E-01 </wgt>
<wgt id='1261'> +3.8680522E-01 </wgt>
<wgt id='1262'> +3.8771043E-01 </wgt>
<wgt id='1263'> +3.8712823E-01 </wgt>
<wgt id='1264'> +3.8731565E-01 </wgt>
<wgt id='1265'> +3.8739263E-01 </wgt>
<wgt id='1266'> +3.8764094E-01 </wgt>
<wgt id='1267'> +3.8707823E-01 </wgt>
<wgt id='1268'> +3.9059707E-01 </wgt>
<wgt id='1269'> +3.8410500E-01 </wgt>
<wgt id='1270'> +3.8639331E-01 </wgt>
<wgt id='1271'> +3.8797104E-01 </wgt>
<wgt id='1272'> +3.8725286E-01 </wgt>
<wgt id='1273'> +3.8741191E-01 </wgt>
<wgt id='1274'> +3.8731853E-01 </wgt>
<wgt id='1275'> +3.8749113E-01 </wgt>
<wgt id='1276'> +3.8663586E-01 </wgt>
<wgt id='1277'> +3.8812199E-01 </wgt>
<wgt id='1278'> +3.8527930E-01 </wgt>
<wgt id='1279'> +3.8894079E-01 </wgt>
<wgt id='1280'> +3.8630093E-01 </wgt>
<wgt id='1281'> +3.9006963E-01 </wgt>
<wgt id='1282'> +3.8977725E-01 </wgt>
<wgt id='1283'> +3.8439962E-01 </wgt>
<wgt id='1284'> +3.8700405E-01 </wgt>
<wgt id='1285'> +3.8730726E-01 </wgt>
<wgt id='1286'> +3.8681500E-01 </wgt>
<wgt id='1287'> +3.8737017E-01 </wgt>
<wgt id='1288'> +3.8742560E-01 </wgt>
<wgt id='1289'> +3.8727558E-01 </wgt>
<wgt id='1290'> +3.8793350E-01 </wgt>
<wgt id='1291'> +3.8715718E-01 </wgt>
<wgt id='1292'> +3.8887241E-01 </wgt>
<wgt id='1293'> +3.8499609E-01 </wgt>
<wgt id='1294'> +3.8530670E-01 </wgt>
<wgt id='1295'> +3.8744575E-01 </wgt>
<wgt id='1296'> +3.9206349E-01 </wgt>
<wgt id='1297'> +3.9304355E-01 </wgt>
<wgt id='1298'> +3.9128016E-01 </wgt>
<wgt id='1299'> +3.9190083E-01 </wgt>
<wgt id='1300'> +3.9226284E-01 </wgt>
<wgt id='1301'> +3.9129460E-01 </wgt>
<wgt id='1302'> +3.9321367E-01 </wgt>
<wgt id='1303'> +3.9112143E-01 </wgt>
<wgt id='1304'> +3.9270286E-01 </wgt>
<wgt id='1305'> +3.9225457E-01 </wgt>
<wgt id='1306'> +3.9179758E-01 </wgt>
<wgt id='1307'> +3.9310961E-01 </wgt>
<wgt id='1308'> +3.9140181E-01 </wgt>
<wgt id='1309'> +3.9228967E-01 </wgt>
<wgt id='1310'> +3.9177588E-01 </wgt>
<wgt id='1311'> +3.9504391E-01 </wgt>
<wgt id='1312'> +3.9098128E-01 </wgt>
<wgt id='1313'> +3.9224790E-01 </wgt>
<wgt id='1314'> +3.9168592E-01 </wgt>
<wgt id='1315'> +3.9218363E-01 </wgt>
<wgt id='1316'> +3.9194405E-01 </wgt>
<wgt id='1317'> +3.9090905E-01 </wgt>
<wgt id='1318'> +3.9426687E-01 </wgt>
<wgt id='1319'> +3.9336736E-01 </wgt>
<wgt id='1320'> +3.9145502E-01 </wgt>
<wgt id='1321'> +3.9074007E-01 </wgt>
<wgt id='1322'> +3.9270498E-01 </wgt>
<wgt id='1323'> +3.9148444E-01 </wgt>
<wgt id='1324'> +3.9262026E-01 </wgt>
<wgt id='1325'> +3.9212983E-01 </wgt>
<wgt id='1326'> +3.9181511E-01 </wgt>
<wgt id='1327'> +3.9273192E-01 </wgt>
<wgt id='1328'> +3.9181465E-01 </wgt>
<wgt id='1329'> +3.9252036E-01 </wgt>
<wgt id='1330'> +3.9182219E-01 </wgt>
<wgt id='1331'> +3.9037171E-01 </wgt>
<wgt id='1332'> +3.9296093E-01 </wgt>
<wgt id='1333'> +3.9467187E-01 </wgt>
<wgt id='1334'> +3.8883330E-01 </wgt>
<wgt id='1335'> +3.9244205E-01 </wgt>
<wgt id='1336'> +3.9196042E-01 </wgt>
<wgt id='1337'> +3.9206349E-01 </wgt>
<wgt id='1338'> +3.9164360E-01 </wgt>
<wgt id='1339'> +3.9182857E-01 </wgt>
<wgt id='1340'> +3.9198558E-01 </wgt>
<wgt id='1341'> +3.9222565E-01 </wgt>
<wgt id='1342'> +3.9233411E-01 </wgt>
<wgt id='1343'> +3.9240197E-01 </wgt>
<wgt id='1344'> +3.8802812E-01 </wgt>
<wgt id='1345'> +3.8928388E-01 </wgt>
<wgt id='1346'> +3.8678620E-01 </wgt>
<wgt id='1347'> +3.8881358E-01 </wgt>
<wgt id='1348'> +3.8743093E-01 </wgt>
<wgt id='1349'> +3.8689163E-01 </wgt>
<wgt id='1350'> +3.8898725E-01 </wgt>
<wgt id='1351'> +3.8802259E-01 </wgt>
<wgt id='1352'> +3.8803855E-01 </wgt>
<wgt id='1353'> +3.8884052E-01 </wgt>
<wgt id='1354'> +3.8744823E-01 </wgt>
<wgt id='1355'> +3.8756682E-01 </wgt>
<wgt id='1356'> +3.8838542E-01 </wgt>
<wgt id='1357'> +3.8789048E-01 </wgt>
<wgt id='1358'> +3.8810816E-01 </wgt>
<wgt id='1359'> +3.8683623E-01 </wgt>
<wgt id='1360'> +3.9100595E-01 </wgt>
<wgt id='1361'> +3.8943774E-01 </wgt>
<wgt id='1362'> +3.8717009E-01 </wgt>
<wgt id='1363'> +3.8811206E-01 </wgt>
<wgt id='1364'> +3.8794721E-01 </wgt>
<wgt id='1365'> +3.8884471E-01 </wgt>
<wgt id='1366'> +3.8780672E-01 </wgt>
<wgt id='1367'> +3.8620371E-01 </wgt>
<wgt id='1368'> +3.8887224E-01 </wgt>
<wgt id='1369'> +3.8766369E-01 </wgt>
<wgt id='1370'> +3.8825937E-01 </wgt>
<wgt id='1371'> +3.8835009E-01 </wgt>
<wgt id='1372'> +3.8768705E-01 </wgt>
<wgt id='1373'> +3.8932687E-01 </wgt>
<wgt id='1374'> +3.8766943E-01 </wgt>
<wgt id='1375'> +3.8908936E-01 </wgt>
<wgt id='1376'> +3.8774227E-01 </wgt>
<wgt id='1377'> +3.8810163E-01 </wgt>
<wgt id='1378'> +3.8800555E-01 </wgt>
<wgt id='1379'> +3.8961188E-01 </wgt>
<wgt id='1380'> +3.8634021E-01 </wgt>
<wgt id='1381'> +3.8632297E-01 </wgt>
<wgt id='1382'> +3.8806566E-01 </wgt>
<wgt id='1383'> +3.8794101E-01 </wgt>
<wgt id='1384'> +3.8816285E-01 </wgt>
<wgt id='1385'> +3.8802812E-01 </wgt>
<wgt id='1386'> +3.8745886E-01 </wgt>
<wgt id='1387'> +3.8770874E-01 </wgt>
<wgt id='1388'> +3.8786060E-01 </wgt>
<wgt id='1389'> +3.8813513E-01 </wgt>
<wgt id='1390'> +3.8823205E-01 </wgt>
<wgt id='1391'> +3.8826182E-01 </wgt>
<wgt id='1392'> +4.0312751E-01 </wgt>
<wgt id='1393'> +4.0300170E-01 </wgt>
<wgt id='1394'> +4.0325820E-01 </wgt>
<wgt id='1395'> +4.0354140E-01 </wgt>
<wgt id='1396'> +4.0282695E-01 </wgt>
<wgt id='1397'> +4.0428839E-01 </wgt>
<wgt id='1398'> +4.0201452E-01 </wgt>
<wgt id='1399'> +4.0299567E-01 </wgt>
<wgt id='1400'> +4.0329635E-01 </wgt>
<wgt id='1401'> +4.0199428E-01 </wgt>
<wgt id='1402'> +4.0453140E-01 </wgt>
<wgt id='1403'> +4.0313107E-01 </wgt>
<wgt id='1404'> +4.0311435E-01 </wgt>
<wgt id='1405'> +4.0236766E-01 </wgt>
<wgt id='1406'> +4.0419507E-01 </wgt>
<wgt id='1407'> +4.0303868E-01 </wgt>
<wgt id='1408'> +4.0318620E-01 </wgt>
<wgt id='1409'> +4.0484612E-01 </wgt>
<wgt id='1410'> +4.0115535E-01 </wgt>
<wgt id='1411'> +4.0227624E-01 </wgt>
<wgt id='1412'> +4.0379275E-01 </wgt>
<wgt id='1413'> +4.0294525E-01 </wgt>
<wgt id='1414'> +4.0333832E-01 </wgt>
<wgt id='1415'> +4.0599546E-01 </wgt>
<wgt id='1416'> +4.0025092E-01 </wgt>
<wgt id='1417'> +4.0235007E-01 </wgt>
<wgt id='1418'> +4.0407086E-01 </wgt>
<wgt id='1419'> +4.0382382E-01 </wgt>
<wgt id='1420'> +4.0256273E-01 </wgt>
<wgt id='1421'> +4.0442603E-01 </wgt>
<wgt id='1422'> +4.0170790E-01 </wgt>
<wgt id='1423'> +4.0291161E-01 </wgt>
<wgt id='1424'> +4.0315323E-01 </wgt>
<wgt id='1425'> +4.0350153E-01 </wgt>
<wgt id='1426'> +4.0280071E-01 </wgt>
<wgt id='1427'> +4.0261056E-01 </wgt>
<wgt id='1428'> +4.0252944E-01 </wgt>
<wgt id='1429'> +4.0241586E-01 </wgt>
<wgt id='1430'> +4.0376886E-01 </wgt>
<wgt id='1431'> +4.0264533E-01 </wgt>
<wgt id='1432'> +4.0348004E-01 </wgt>
<wgt id='1433'> +4.0161974E-01 </wgt>
<wgt id='1434'> +4.0517892E-01 </wgt>
<wgt id='1435'> +4.0328173E-01 </wgt>
<wgt id='1436'> +4.0285299E-01 </wgt>
<wgt id='1437'> +4.0235912E-01 </wgt>
<wgt id='1438'> +4.0506164E-01 </wgt>
<wgt id='1439'> +4.0561061E-01 </wgt>
<wgt id='1440'> +3.9885714E-01 </wgt>
<wgt id='1441'> +4.0406387E-01 </wgt>
<wgt id='1442'> +4.0308758E-01 </wgt>
<wgt id='1443'> +3.9640597E-01 </wgt>
<wgt id='1444'> +3.9628950E-01 </wgt>
<wgt id='1445'> +3.9652739E-01 </wgt>
<wgt id='1446'> +3.9683171E-01 </wgt>
<wgt id='1447'> +3.9611388E-01 </wgt>
<wgt id='1448'> +3.9760660E-01 </wgt>
<wgt id='1449'> +3.9529936E-01 </wgt>
<wgt id='1450'> +3.9623798E-01 </wgt>
<wgt id='1451'> +3.9659100E-01 </wgt>
<wgt id='1452'> +3.9523875E-01 </wgt>
<wgt id='1453'> +3.9753722E-01 </wgt>
<wgt id='1454'> +3.9630616E-01 </wgt>
<wgt id='1455'> +3.9660906E-01 </wgt>
<wgt id='1456'> +3.9549094E-01 </wgt>
<wgt id='1457'> +3.9803455E-01 </wgt>
<wgt id='1458'> +3.9644246E-01 </wgt>
<wgt id='1459'> +3.9638226E-01 </wgt>
<wgt id='1460'> +3.9797566E-01 </wgt>
<wgt id='1461'> +3.9450490E-01 </wgt>
<wgt id='1462'> +3.9520832E-01 </wgt>
<wgt id='1463'> +3.9743797E-01 </wgt>
<wgt id='1464'> +3.9635646E-01 </wgt>
<wgt id='1465'> +3.9648021E-01 </wgt>
<wgt id='1466'> +4.0027874E-01 </wgt>
<wgt id='1467'> +3.9378975E-01 </wgt>
<wgt id='1468'> +3.9675290E-01 </wgt>
<wgt id='1469'> +3.9610512E-01 </wgt>
<wgt id='1470'> +3.9711370E-01 </wgt>
<wgt id='1471'> +3.9593919E-01 </wgt>
<wgt id='1472'> +3.9748960E-01 </wgt>
<wgt id='1473'> +3.9517584E-01 </wgt>
<wgt id='1474'> +3.9638215E-01 </wgt>
<wgt id='1475'> +3.9631770E-01 </wgt>
<wgt id='1476'> +3.9699618E-01 </wgt>
<wgt id='1477'> +3.9599360E-01 </wgt>
<wgt id='1478'> +3.9599709E-01 </wgt>
<wgt id='1479'> +3.9572927E-01 </wgt>
<wgt id='1480'> +3.9579436E-01 </wgt>
<wgt id='1481'> +3.9696038E-01 </wgt>
<wgt id='1482'> +3.9591182E-01 </wgt>
<wgt id='1483'> +3.9682697E-01 </wgt>
<wgt id='1484'> +3.9492261E-01 </wgt>
<wgt id='1485'> +3.9838119E-01 </wgt>
<wgt id='1486'> +3.9692558E-01 </wgt>
<wgt id='1487'> +3.9592769E-01 </wgt>
<wgt id='1488'> +3.9558297E-01 </wgt>
<wgt id='1489'> +3.9838876E-01 </wgt>
<wgt id='1490'> +3.9955494E-01 </wgt>
<wgt id='1491'> +3.9186203E-01 </wgt>
<wgt id='1492'> +3.9800260E-01 </wgt>
<wgt id='1493'> +3.9615174E-01 </wgt>
<wgt id='1494'> +3.8770679E-01 </wgt>
<wgt id='1495'> +3.7839367E-01 </wgt>
<wgt id='1496'> +3.8157636E-01 </wgt>
<wgt id='1497'> +3.8466043E-01 </wgt>
<wgt id='1498'> +3.9054200E-01 </wgt>
<wgt id='1499'> +3.8763133E-01 </wgt>
<wgt id='1500'> +3.8999306E-01 </wgt>
<wgt id='1501'> +3.8960943E-01 </wgt>
<wgt id='1502'> +3.8915908E-01 </wgt>
<wgt id='1503'> +3.8867914E-01 </wgt>
<wgt id='1504'> +3.8819381E-01 </wgt>
<wgt id='1505'> +3.8710849E-01 </wgt>
<wgt id='1506'> +3.8652210E-01 </wgt>
<wgt id='1507'> +3.8593474E-01 </wgt>
<wgt id='1508'> +3.8763133E-01 </wgt>
<wgt id='1509'> +3.8753056E-01 </wgt>
<wgt id='1510'> +3.8757023E-01 </wgt>
<wgt id='1511'> +3.8770190E-01 </wgt>
<wgt id='1512'> +3.8775269E-01 </wgt>
<wgt id='1513'> +3.8792904E-01 </wgt>
<wgt id='1514'> +3.8765116E-01 </wgt>
<wgt id='1515'> +3.8829237E-01 </wgt>
<wgt id='1516'> +3.8837654E-01 </wgt>
<wgt id='1517'> +3.8748015E-01 </wgt>
<wgt id='1518'> +3.8888100E-01 </wgt>
<wgt id='1519'> +3.8754713E-01 </wgt>
<wgt id='1520'> +3.8832828E-01 </wgt>
<wgt id='1521'> +3.8751731E-01 </wgt>
<wgt id='1522'> +3.8731300E-01 </wgt>
<wgt id='1523'> +3.8851744E-01 </wgt>
<wgt id='1524'> +3.8914522E-01 </wgt>
<wgt id='1525'> +3.8739539E-01 </wgt>
<wgt id='1526'> +3.8756761E-01 </wgt>
<wgt id='1527'> +3.8836987E-01 </wgt>
<wgt id='1528'> +3.8728396E-01 </wgt>
<wgt id='1529'> +3.8861291E-01 </wgt>
<wgt id='1530'> +3.9021097E-01 </wgt>
<wgt id='1531'> +3.8663079E-01 </wgt>
<wgt id='1532'> +3.8972139E-01 </wgt>
<wgt id='1533'> +3.8545786E-01 </wgt>
<wgt id='1534'> +3.8704843E-01 </wgt>
<wgt id='1535'> +3.8854010E-01 </wgt>
<wgt id='1536'> +3.8844615E-01 </wgt>
<wgt id='1537'> +3.8746602E-01 </wgt>
<wgt id='1538'> +3.8661256E-01 </wgt>
<wgt id='1539'> +3.9107757E-01 </wgt>
<wgt id='1540'> +3.8818962E-01 </wgt>
<wgt id='1541'> +3.8754544E-01 </wgt>
<wgt id='1542'> +3.8724272E-01 </wgt>
<wgt id='1543'> +3.9000180E-01 </wgt>
<wgt id='1544'> +3.8750927E-01 </wgt>
<wgt id='1545'> +3.8832196E-01 </wgt>
<wgt id='1546'> +3.8727345E-01 </wgt>
<wgt id='1547'> +3.8878009E-01 </wgt>
<wgt id='1548'> +3.8794014E-01 </wgt>
<wgt id='1549'> +3.8736927E-01 </wgt>
<wgt id='1550'> +3.8799999E-01 </wgt>
<wgt id='1551'> +3.8763884E-01 </wgt>
<wgt id='1552'> +3.8726532E-01 </wgt>
<wgt id='1553'> +3.8828651E-01 </wgt>
<wgt id='1554'> +3.8841254E-01 </wgt>
<wgt id='1555'> +3.8653646E-01 </wgt>
<wgt id='1556'> +3.8825378E-01 </wgt>
<wgt id='1557'> +3.8683160E-01 </wgt>
<wgt id='1558'> +3.8506605E-01 </wgt>
<wgt id='1559'> +3.8979201E-01 </wgt>
<wgt id='1560'> +3.9042355E-01 </wgt>
<wgt id='1561'> +3.8674595E-01 </wgt>
<wgt id='1562'> +3.8593107E-01 </wgt>
<wgt id='1563'> +3.8895812E-01 </wgt>
<wgt id='1564'> +3.8792904E-01 </wgt>
<wgt id='1565'> +3.8459549E-01 </wgt>
<wgt id='1566'> +3.8993158E-01 </wgt>
<wgt id='1567'> +3.8717786E-01 </wgt>
<wgt id='1568'> +3.8937787E-01 </wgt>
<wgt id='1569'> +3.8905887E-01 </wgt>
<wgt id='1570'> +3.8860281E-01 </wgt>
<wgt id='1571'> +3.8806447E-01 </wgt>
<wgt id='1572'> +3.8767164E-01 </wgt>
<wgt id='1573'> +3.8660548E-01 </wgt>
<wgt id='1574'> +3.8583581E-01 </wgt>
<wgt id='1575'> +3.8528708E-01 </wgt>
<wgt id='1576'> +3.8717786E-01 </wgt>
<wgt id='1577'> +3.8696022E-01 </wgt>
<wgt id='1578'> +3.8705705E-01 </wgt>
<wgt id='1579'> +3.8727188E-01 </wgt>
<wgt id='1580'> +3.8738459E-01 </wgt>
<wgt id='1581'> +3.8597619E-01 </wgt>
<wgt id='1582'> +3.8637417E-01 </wgt>
<wgt id='1583'> +3.8726733E-01 </wgt>
<wgt id='1584'> +3.8431481E-01 </wgt>
<wgt id='1585'> +3.8701252E-01 </wgt>
<wgt id='1586'> +3.8242231E-01 </wgt>
<wgt id='1587'> +3.8330420E-01 </wgt>
<wgt id='1588'> +3.8878949E-01 </wgt>
<wgt id='1589'> +3.8580671E-01 </wgt>
<wgt id='1590'> +3.8750307E-01 </wgt>
<wgt id='1591'> +3.8513449E-01 </wgt>
<wgt id='1592'> +3.8552473E-01 </wgt>
<wgt id='1593'> +3.8663533E-01 </wgt>
<wgt id='1594'> +3.8583642E-01 </wgt>
<wgt id='1595'> +3.8569686E-01 </wgt>
<wgt id='1596'> +3.8882325E-01 </wgt>
<wgt id='1597'> +3.8722633E-01 </wgt>
<wgt id='1598'> +3.8541196E-01 </wgt>
<wgt id='1599'> +3.8631226E-01 </wgt>
<wgt id='1600'> +3.8757314E-01 </wgt>
<wgt id='1601'> +3.8519286E-01 </wgt>
<wgt id='1602'> +3.8689518E-01 </wgt>
<wgt id='1603'> +3.8634732E-01 </wgt>
<wgt id='1604'> +3.8601964E-01 </wgt>
<wgt id='1605'> +3.8567973E-01 </wgt>
<wgt id='1606'> +3.8639526E-01 </wgt>
<wgt id='1607'> +3.8645328E-01 </wgt>
<wgt id='1608'> +3.8595167E-01 </wgt>
<wgt id='1609'> +3.8667258E-01 </wgt>
<wgt id='1610'> +3.8561962E-01 </wgt>
<wgt id='1611'> +3.8829837E-01 </wgt>
<wgt id='1612'> +3.9130139E-01 </wgt>
<wgt id='1613'> +3.9117423E-01 </wgt>
<wgt id='1614'> +3.9150535E-01 </wgt>
<wgt id='1615'> +3.9157921E-01 </wgt>
<wgt id='1616'> +3.9143056E-01 </wgt>
<wgt id='1617'> +3.9117342E-01 </wgt>
<wgt id='1618'> +3.9145627E-01 </wgt>
<wgt id='1619'> +3.9020576E-01 </wgt>
<wgt id='1620'> +3.9043051E-01 </wgt>
<wgt id='1621'> +3.9177431E-01 </wgt>
<wgt id='1622'> +3.9183571E-01 </wgt>
<wgt id='1623'> +3.9072915E-01 </wgt>
<wgt id='1624'> +3.9095324E-01 </wgt>
<wgt id='1625'> +3.9136112E-01 </wgt>
<wgt id='1626'> +3.9285133E-01 </wgt>
<wgt id='1627'> +3.9117225E-01 </wgt>
<wgt id='1628'> +3.9171464E-01 </wgt>
<wgt id='1629'> +3.9154921E-01 </wgt>
<wgt id='1630'> +3.9157309E-01 </wgt>
<wgt id='1631'> +3.9159723E-01 </wgt>
<wgt id='1632'> +3.9245466E-01 </wgt>
<wgt id='1633'> +3.9111004E-01 </wgt>
<wgt id='1634'> +3.9267300E-01 </wgt>
<wgt id='1635'> +3.9060843E-01 </wgt>
<wgt id='1636'> +3.9119249E-01 </wgt>
<wgt id='1637'> +3.9256516E-01 </wgt>
<wgt id='1638'> +3.9102910E-01 </wgt>
<wgt id='1639'> +3.9196787E-01 </wgt>
<wgt id='1640'> +3.9136176E-01 </wgt>
<wgt id='1641'> +3.8809817E-01 </wgt>
<wgt id='1642'> +3.9093410E-01 </wgt>
<wgt id='1643'> +3.9151260E-01 </wgt>
<wgt id='1644'> +3.9027097E-01 </wgt>
<wgt id='1645'> +3.9075286E-01 </wgt>
<wgt id='1646'> +3.9197341E-01 </wgt>
<wgt id='1647'> +3.9077561E-01 </wgt>
<wgt id='1648'> +3.9104259E-01 </wgt>
<wgt id='1649'> +3.9165409E-01 </wgt>
<wgt id='1650'> +3.9095990E-01 </wgt>
<wgt id='1651'> +3.9145662E-01 </wgt>
<wgt id='1652'> +3.9111616E-01 </wgt>
<wgt id='1653'> +3.9132041E-01 </wgt>
<wgt id='1654'> +3.9098766E-01 </wgt>
<wgt id='1655'> +3.9200268E-01 </wgt>
<wgt id='1656'> +3.9154991E-01 </wgt>
<wgt id='1657'> +3.9094191E-01 </wgt>
<wgt id='1658'> +3.9205356E-01 </wgt>
<wgt id='1659'> +3.9260287E-01 </wgt>
<wgt id='1660'> +3.9118108E-01 </wgt>
<wgt id='1661'> +3.9127282E-01 </wgt>
<wgt id='1662'> +3.9078859E-01 </wgt>
<wgt id='1663'> +3.9139593E-01 </wgt>
<wgt id='1664'> +3.9123289E-01 </wgt>
<wgt id='1665'> +3.9113136E-01 </wgt>
<wgt id='1666'> +3.9122855E-01 </wgt>
<wgt id='1667'> +3.9094654E-01 </wgt>
<wgt id='1668'> +3.9136072E-01 </wgt>
<wgt id='1669'> +3.9133977E-01 </wgt>
<wgt id='1670'> +3.9124908E-01 </wgt>
<wgt id='1671'> +3.9119226E-01 </wgt>
<wgt id='1672'> +3.9236225E-01 </wgt>
<wgt id='1673'> +3.9139266E-01 </wgt>
<wgt id='1674'> +3.9152239E-01 </wgt>
<wgt id='1675'> +3.9147305E-01 </wgt>
<wgt id='1676'> +3.9114720E-01 </wgt>
<wgt id='1677'> +3.9154315E-01 </wgt>
<wgt id='1678'> +3.9099855E-01 </wgt>
<wgt id='1679'> +3.9142094E-01 </wgt>
<wgt id='1680'> +3.9174682E-01 </wgt>
<wgt id='1681'> +3.9167372E-01 </wgt>
<wgt id='1682'> +3.9106268E-01 </wgt>
<wgt id='1683'> +3.9110063E-01 </wgt>
<wgt id='1684'> +3.9142895E-01 </wgt>
<wgt id='1685'> +3.9159892E-01 </wgt>
<wgt id='1686'> +3.9109525E-01 </wgt>
<wgt id='1687'> +3.9116410E-01 </wgt>
<wgt id='1688'> +3.9139858E-01 </wgt>
<wgt id='1689'> +3.9120461E-01 </wgt>
<wgt id='1690'> +3.9138859E-01 </wgt>
<wgt id='1691'> +3.9088206E-01 </wgt>
<wgt id='1692'> +3.9175547E-01 </wgt>
<wgt id='1693'> +3.9134208E-01 </wgt>
<wgt id='1694'> +3.9135655E-01 </wgt>
<wgt id='1695'> +3.9120079E-01 </wgt>
<wgt id='1696'> +3.9162467E-01 </wgt>
<wgt id='1697'> +3.9112207E-01 </wgt>
<wgt id='1698'> +3.9114636E-01 </wgt>
<wgt id='1699'> +3.9100412E-01 </wgt>
<wgt id='1700'> +3.9119692E-01 </wgt>
<wgt id='1701'> +3.9138684E-01 </wgt>
<wgt id='1702'> +3.9156127E-01 </wgt>
<wgt id='1703'> +3.9092434E-01 </wgt>
<wgt id='1704'> +3.9144139E-01 </wgt>
<wgt id='1705'> +3.9124061E-01 </wgt>
<wgt id='1706'> +3.9162286E-01 </wgt>
<wgt id='1707'> +3.9137834E-01 </wgt>
<wgt id='1708'> +3.9152145E-01 </wgt>
<wgt id='1709'> +3.9132151E-01 </wgt>
<wgt id='1710'> +3.9136538E-01 </wgt>
<wgt id='1711'> +3.9150718E-01 </wgt>
<wgt id='1712'> +3.9139482E-01 </wgt>
<wgt id='1713'> +3.8296117E-01 </wgt>
<wgt id='1714'> +3.9837356E-01 </wgt>
<wgt id='1715'> +4.0106580E-01 </wgt>
<wgt id='1716'> +3.9858288E-01 </wgt>
<wgt id='1717'> +4.0170368E-01 </wgt>
<wgt id='1718'> +3.9712584E-01 </wgt>
<wgt id='1719'> +3.9458893E-01 </wgt>
<wgt id='1720'> +4.0728168E-01 </wgt>
<wgt id='1721'> +3.9329886E-01 </wgt>
<wgt id='1722'> +4.0373933E-01 </wgt>
<wgt id='1723'> +4.0921263E-01 </wgt>
<wgt id='1724'> +4.0004682E-01 </wgt>
<wgt id='1725'> +4.0807346E-01 </wgt>
<wgt id='1726'> +4.0434841E-01 </wgt>
<wgt id='1727'> +4.0267874E-01 </wgt>
<wgt id='1728'> +4.0170315E-01 </wgt>
<wgt id='1729'> +4.0178930E-01 </wgt>
<wgt id='1730'> +4.0071499E-01 </wgt>
<wgt id='1731'> +3.7474461E-01 </wgt>
<wgt id='1732'> +4.1119146E-01 </wgt>
<wgt id='1733'> +4.0295478E-01 </wgt>
<wgt id='1734'> +3.9687091E-01 </wgt>
<wgt id='1735'> +3.8526142E-01 </wgt>
<wgt id='1736'> +3.9480031E-01 </wgt>
<wgt id='1737'> +4.0221219E-01 </wgt>
<wgt id='1738'> +4.0349282E-01 </wgt>
<wgt id='1739'> +4.0467324E-01 </wgt>
<wgt id='1740'> +4.0132273E-01 </wgt>
<wgt id='1741'> +3.9647555E-01 </wgt>
<wgt id='1742'> +4.0846961E-01 </wgt>
<wgt id='1743'> +3.9341224E-01 </wgt>
<wgt id='1744'> +4.0246167E-01 </wgt>
<wgt id='1745'> +3.8912402E-01 </wgt>
<wgt id='1746'> +3.9831001E-01 </wgt>
<wgt id='1747'> +4.0019063E-01 </wgt>
<wgt id='1748'> +3.9197064E-01 </wgt>
<wgt id='1749'> +4.0937008E-01 </wgt>
<wgt id='1750'> +4.0097152E-01 </wgt>
<wgt id='1751'> +4.0357437E-01 </wgt>
<wgt id='1752'> +3.9526747E-01 </wgt>
<wgt id='1753'> +3.9470857E-01 </wgt>
<wgt id='1754'> +4.0103853E-01 </wgt>
<wgt id='1755'> +4.0112477E-01 </wgt>
<wgt id='1756'> +3.9949107E-01 </wgt>
<wgt id='1757'> +3.9488288E-01 </wgt>
<wgt id='1758'> +3.9954075E-01 </wgt>
<wgt id='1759'> +3.9709972E-01 </wgt>
<wgt id='1760'> +3.9477733E-01 </wgt>
<wgt id='1761'> +4.0194527E-01 </wgt>
<wgt id='1762'> +4.0267874E-01 </wgt>
<wgt id='1763'> +4.0441231E-01 </wgt>
<wgt id='1764'> +4.0822869E-01 </wgt>
<wgt id='1765'> +4.0886287E-01 </wgt>
<wgt id='1766'> +4.0898374E-01 </wgt>
<wgt id='1767'> +3.9127640E-01 </wgt>
<wgt id='1768'> +3.9292502E-01 </wgt>
<wgt id='1769'> +4.0608790E-01 </wgt>
<wgt id='1770'> +4.0936783E-01 </wgt>
<wgt id='1771'> +4.0271939E-01 </wgt>
<wgt id='1772'> +3.9681502E-01 </wgt>
<wgt id='1773'> +4.0137032E-01 </wgt>
<wgt id='1774'> +3.9108374E-01 </wgt>
<wgt id='1775'> +4.0126667E-01 </wgt>
<wgt id='1776'> +4.0161080E-01 </wgt>
<wgt id='1777'> +4.0676157E-01 </wgt>
<wgt id='1778'> +3.9341055E-01 </wgt>
<wgt id='1779'> +3.9639470E-01 </wgt>
<wgt id='1780'> +4.1118983E-01 </wgt>
<wgt id='1781'> +4.0216379E-01 </wgt>
<wgt id='1782'> +4.0834437E-01 </wgt>
<wgt id='1783'> +3.9561140E-01 </wgt>
<wgt id='1784'> +4.0653851E-01 </wgt>
<wgt id='1785'> +4.0397783E-01 </wgt>
<wgt id='1786'> +4.0800967E-01 </wgt>
<wgt id='1787'> +4.0692013E-01 </wgt>
<wgt id='1788'> +3.9657329E-01 </wgt>
<wgt id='1789'> +4.0299774E-01 </wgt>
<wgt id='1790'> +4.0861738E-01 </wgt>
<wgt id='1791'> +3.8726276E-01 </wgt>
<wgt id='1792'> +4.0973381E-01 </wgt>
<wgt id='1793'> +4.0625254E-01 </wgt>
<wgt id='1794'> +3.9938106E-01 </wgt>
<wgt id='1795'> +4.0612751E-01 </wgt>
<wgt id='1796'> +4.0569486E-01 </wgt>
<wgt id='1797'> +4.0064996E-01 </wgt>
<wgt id='1798'> +4.0793960E-01 </wgt>
<wgt id='1799'> +4.0182088E-01 </wgt>
<wgt id='1800'> +4.0360341E-01 </wgt>
<wgt id='1801'> +3.9741971E-01 </wgt>
<wgt id='1802'> +4.0513279E-01 </wgt>
<wgt id='1803'> +4.0315769E-01 </wgt>
<wgt id='1804'> +4.0869069E-01 </wgt>
<wgt id='1805'> +3.9885575E-01 </wgt>
<wgt id='1806'> +4.0204968E-01 </wgt>
<wgt id='1807'> +3.9364401E-01 </wgt>
<wgt id='1808'> +3.9532202E-01 </wgt>
<wgt id='1809'> +3.9935456E-01 </wgt>
<wgt id='1810'> +3.9848851E-01 </wgt>
<wgt id='1811'> +4.0470591E-01 </wgt>
<wgt id='1812'> +3.9859127E-01 </wgt>
<wgt id='1813'> +4.0618069E-01 </wgt>
<wgt id='1814'> +4.0415549E-01 </wgt>
<wgt id='1815'> +4.0956090E-01 </wgt>
<wgt id='1816'> +3.9197734E-01 </wgt>
<wgt id='1817'> +3.9983599E-01 </wgt>
<wgt id='1818'> +3.8938474E-01 </wgt>
<wgt id='1819'> +3.9660862E-01 </wgt>
<wgt id='1820'> +3.9422959E-01 </wgt>
<wgt id='1821'> +4.0462052E-01 </wgt>
<wgt id='1822'> +4.0069391E-01 </wgt>
<wgt id='1823'> +3.8888292E-01 </wgt>
<wgt id='1824'> +3.8852236E-01 </wgt>
<wgt id='1825'> +3.9149413E-01 </wgt>
<wgt id='1826'> +3.8575933E-01 </wgt>
<wgt id='1827'> +3.7870172E-01 </wgt>
<wgt id='1828'> +3.9982314E-01 </wgt>
<wgt id='1829'> +4.0047588E-01 </wgt>
<wgt id='1830'> +3.8294765E-01 </wgt>
<wgt id='1831'> +3.9500078E-01 </wgt>
<wgt id='1832'> +3.8938949E-01 </wgt>
<wgt id='1833'> +3.8683364E-01 </wgt>
<wgt id='1834'> +3.8699729E-01 </wgt>
<wgt id='1835'> +3.9508052E-01 </wgt>
<wgt id='1836'> +3.9245396E-01 </wgt>
<wgt id='1837'> +3.9876776E-01 </wgt>
<wgt id='1838'> +3.8429288E-01 </wgt>
<wgt id='1839'> +4.1235696E-01 </wgt>
<wgt id='1840'> +3.9026307E-01 </wgt>
<wgt id='1841'> +3.9195762E-01 </wgt>
<wgt id='1842'> +3.9403912E-01 </wgt>
<wgt id='1843'> +3.8295555E-01 </wgt>
<wgt id='1844'> +3.8714786E-01 </wgt>
<wgt id='1845'> +3.9066796E-01 </wgt>
<wgt id='1846'> +3.9756772E-01 </wgt>
<wgt id='1847'> +3.8937664E-01 </wgt>
<wgt id='1848'> +3.8517049E-01 </wgt>
<wgt id='1849'> +3.8571156E-01 </wgt>
<wgt id='1850'> +3.9678424E-01 </wgt>
<wgt id='1851'> +3.8958153E-01 </wgt>
<wgt id='1852'> +3.9629926E-01 </wgt>
<wgt id='1853'> +3.8778621E-01 </wgt>
<wgt id='1854'> +3.9613162E-01 </wgt>
<wgt id='1855'> +3.9211347E-01 </wgt>
<wgt id='1856'> +3.8908138E-01 </wgt>
<wgt id='1857'> +4.0045159E-01 </wgt>
<wgt id='1858'> +3.9602392E-01 </wgt>
<wgt id='1859'> +3.9279897E-01 </wgt>
<wgt id='1860'> +3.9043398E-01 </wgt>
<wgt id='1861'> +3.8697149E-01 </wgt>
<wgt id='1862'> +4.0244519E-01 </wgt>
<wgt id='1863'> +3.8986293E-01 </wgt>
<wgt id='1864'> +3.9199837E-01 </wgt>
<wgt id='1865'> +3.8710523E-01 </wgt>
<wgt id='1866'> +3.9206116E-01 </wgt>
<wgt id='1867'> +3.9388420E-01 </wgt>
<wgt id='1868'> +3.9117857E-01 </wgt>
<wgt id='1869'> +3.9814298E-01 </wgt>
<wgt id='1870'> +3.9513597E-01 </wgt>
<wgt id='1871'> +3.9071372E-01 </wgt>
<wgt id='1872'> +3.8766212E-01 </wgt>
<wgt id='1873'> +3.9983890E-01 </wgt>
<wgt id='1874'> +3.9154210E-01 </wgt>
<wgt id='1875'> +3.9009235E-01 </wgt>
<wgt id='1876'> +3.9381690E-01 </wgt>
<wgt id='1877'> +3.9231087E-01 </wgt>
<wgt id='1878'> +3.9176260E-01 </wgt>
<wgt id='1879'> +3.9713286E-01 </wgt>
<wgt id='1880'> +3.7429006E-01 </wgt>
<wgt id='1881'> +3.9075397E-01 </wgt>
<wgt id='1882'> +3.8574284E-01 </wgt>
<wgt id='1883'> +4.0820979E-01 </wgt>
<wgt id='1884'> +3.9050743E-01 </wgt>
<wgt id='1885'> +3.8507027E-01 </wgt>
<wgt id='1886'> +3.8204022E-01 </wgt>
<wgt id='1887'> +3.9505736E-01 </wgt>
<wgt id='1888'> +3.9751611E-01 </wgt>
<wgt id='1889'> +3.8855935E-01 </wgt>
<wgt id='1890'> +4.0057755E-01 </wgt>
<wgt id='1891'> +3.9188874E-01 </wgt>
<wgt id='1892'> +3.9386230E-01 </wgt>
<wgt id='1893'> +3.9008789E-01 </wgt>
<wgt id='1894'> +3.9845476E-01 </wgt>
<wgt id='1895'> +3.9204517E-01 </wgt>
<wgt id='1896'> +3.8841711E-01 </wgt>
<wgt id='1897'> +3.9148304E-01 </wgt>
<wgt id='1898'> +3.9133733E-01 </wgt>
<wgt id='1899'> +3.9277546E-01 </wgt>
<wgt id='1900'> +3.8944864E-01 </wgt>
<wgt id='1901'> +3.8623691E-01 </wgt>
<wgt id='1902'> +3.8468236E-01 </wgt>
<wgt id='1903'> +3.9235371E-01 </wgt>
<wgt id='1904'> +3.9570713E-01 </wgt>
<wgt id='1905'> +3.9710426E-01 </wgt>
<wgt id='1906'> +3.8636803E-01 </wgt>
<wgt id='1907'> +3.9140236E-01 </wgt>
<wgt id='1908'> +3.8882101E-01 </wgt>
<wgt id='1909'> +3.8881489E-01 </wgt>
<wgt id='1910'> +3.9433508E-01 </wgt>
<wgt id='1911'> +3.7848311E-01 </wgt>
<wgt id='1912'> +3.9281496E-01 </wgt>
<wgt id='1913'> +3.8928947E-01 </wgt>
<wgt id='1914'> +3.9910927E-01 </wgt>
<wgt id='1915'> +3.9567935E-01 </wgt>
<wgt id='1916'> +3.8776926E-01 </wgt>
<wgt id='1917'> +3.6889432E-01 </wgt>
<wgt id='1918'> +3.9500622E-01 </wgt>
<wgt id='1919'> +3.9197734E-01 </wgt>
<wgt id='1920'> +3.9983599E-01 </wgt>
<wgt id='1921'> +3.8938474E-01 </wgt>
<wgt id='1922'> +3.9660862E-01 </wgt>
<wgt id='1923'> +3.9422959E-01 </wgt>
<wgt id='1924'> +4.0462052E-01 </wgt>
<wgt id='1925'> +4.0069391E-01 </wgt>
<wgt id='1926'> +3.8888292E-01 </wgt>
<wgt id='1927'> +3.8852236E-01 </wgt>
<wgt id='1928'> +3.9149413E-01 </wgt>
<wgt id='1929'> +3.8575933E-01 </wgt>
<wgt id='1930'> +3.7870172E-01 </wgt>
<wgt id='1931'> +3.9982314E-01 </wgt>
<wgt id='1932'> +4.0047588E-01 </wgt>
<wgt id='1933'> +3.8294765E-01 </wgt>
<wgt id='1934'> +3.9500078E-01 </wgt>
<wgt id='1935'> +3.8938949E-01 </wgt>
<wgt id='1936'> +3.8683364E-01 </wgt>
<wgt id='1937'> +3.8699729E-01 </wgt>
<wgt id='1938'> +3.9508052E-01 </wgt>
<wgt id='1939'> +3.9245396E-01 </wgt>
<wgt id='1940'> +3.9876776E-01 </wgt>
<wgt id='1941'> +3.8429288E-01 </wgt>
<wgt id='1942'> +4.1235696E-01 </wgt>
<wgt id='1943'> +3.9026307E-01 </wgt>
<wgt id='1944'> +3.9195762E-01 </wgt>
<wgt id='1945'> +3.9403912E-01 </wgt>
<wgt id='1946'> +3.8295555E-01 </wgt>
<wgt id='1947'> +3.8714786E-01 </wgt>
<wgt id='1948'> +3.9066796E-01 </wgt>
<wgt id='1949'> +3.9756772E-01 </wgt>
<wgt id='1950'> +3.8937664E-01 </wgt>
<wgt id='1951'> +3.8517049E-01 </wgt>
<wgt id='1952'> +3.8571156E-01 </wgt>
<wgt id='1953'> +3.9678424E-01 </wgt>
<wgt id='1954'> +3.8958153E-01 </wgt>
<wgt id='1955'> +3.9629926E-01 </wgt>
<wgt id='1956'> +3.8778621E-01 </wgt>
<wgt id='1957'> +3.9613162E-01 </wgt>
<wgt id='1958'> +3.9211347E-01 </wgt>
<wgt id='1959'> +3.8908138E-01 </wgt>
<wgt id='1960'> +4.0045159E-01 </wgt>
<wgt id='1961'> +3.9602392E-01 </wgt>
<wgt id='1962'> +3.9279897E-01 </wgt>
<wgt id='1963'> +3.9043398E-01 </wgt>
<wgt id='1964'> +3.8697149E-01 </wgt>
<wgt id='1965'> +4.0244519E-01 </wgt>
<wgt id='1966'> +3.8986293E-01 </wgt>
<wgt id='1967'> +3.9199837E-01 </wgt>
<wgt id='1968'> +3.8710523E-01 </wgt>
<wgt id='1969'> +3.9206116E-01 </wgt>
<wgt id='1970'> +3.9388420E-01 </wgt>
<wgt id='1971'> +3.9117857E-01 </wgt>
<wgt id='1972'> +3.9814298E-01 </wgt>
<wgt id='1973'> +3.9513597E-01 </wgt>
<wgt id='1974'> +3.9071372E-01 </wgt>
<wgt id='1975'> +3.8766212E-01 </wgt>
<wgt id='1976'> +3.9983890E-01 </wgt>
<wgt id='1977'> +3.9154210E-01 </wgt>
<wgt id='1978'> +3.9009235E-01 </wgt>
<wgt id='1979'> +3.9381690E-01 </wgt>
<wgt id='1980'> +3.9231087E-01 </wgt>
<wgt id='1981'> +3.9176260E-01 </wgt>
<wgt id='1982'> +3.9713286E-01 </wgt>
<wgt id='1983'> +3.7429006E-01 </wgt>
<wgt id='1984'> +3.9075397E-01 </wgt>
<wgt id='1985'> +3.8574284E-01 </wgt>
<wgt id='1986'> +4.0820979E-01 </wgt>
<wgt id='1987'> +3.9050743E-01 </wgt>
<wgt id='1988'> +3.8507027E-01 </wgt>
<wgt id='1989'> +3.8204022E-01 </wgt>
<wgt id='1990'> +3.9505736E-01 </wgt>
<wgt id='1991'> +3.9751611E-01 </wgt>
<wgt id='1992'> +3.8855935E-01 </wgt>
<wgt id='1993'> +4.0057755E-01 </wgt>
<wgt id='1994'> +3.9188874E-01 </wgt>
<wgt id='1995'> +3.9386230E-01 </wgt>
<wgt id='1996'> +3.9008789E-01 </wgt>
<wgt id='1997'> +3.9845476E-01 </wgt>
<wgt id='1998'> +3.9204517E-01 </wgt>
<wgt id='1999'> +3.8841711E-01 </wgt>
<wgt id='2000'> +3.9148304E-01 </wgt>
<wgt id='2001'> +3.9133733E-01 </wgt>
<wgt id='2002'> +3.9277546E-01 </wgt>
<wgt id='2003'> +3.8944864E-01 </wgt>
<wgt id='2004'> +3.8623691E-01 </wgt>
<wgt id='2005'> +3.8468236E-01 </wgt>
<wgt id='2006'> +3.9235371E-01 </wgt>
<wgt id='2007'> +3.9570713E-01 </wgt>
<wgt id='2008'> +3.9710426E-01 </wgt>
<wgt id='2009'> +3.8636803E-01 </wgt>
<wgt id='2010'> +3.9140236E-01 </wgt>
<wgt id='2011'> +3.8882101E-01 </wgt>
<wgt id='2012'> +3.8881489E-01 </wgt>
<wgt id='2013'> +3.9433508E-01 </wgt>
<wgt id='2014'> +3.7848311E-01 </wgt>
<wgt id='2015'> +3.9281496E-01 </wgt>
<wgt id='2016'> +3.8928947E-01 </wgt>
<wgt id='2017'> +3.9910927E-01 </wgt>
<wgt id='2018'> +3.9567935E-01 </wgt>
<wgt id='2019'> +3.8776926E-01 </wgt>
<wgt id='2020'> +3.8966949E-01 </wgt>
<wgt id='2021'> +3.9473242E-01 </wgt>
<wgt id='2022'> +3.9064125E-01 </wgt>
</rwgt>
</event>
<event>
13      1 +3.9556008E-01 1.73803800e+02 7.81860800e-03 1.08748400e-01
        2 -1    0    0  501    0 +0.0000000000e+00 +0.0000000000e+00 +2.9033264586e+03 2.9033264586e+03 2.5500000000e-03 0.0000e+00 -1.0000e+00
       21 -1    0    0  502  503 +0.0000000000e+00 +0.0000000000e+00 -1.8541449532e+02 1.8541449532e+02 0.0000000000e+00 0.0000e+00 1.0000e+00
  8000001  2    1    2  502    0 -1.1326371472e+02 -3.7477689196e+00 +6.6974639387e+02 9.0631233813e+02 5.9999925610e+02 0.0000e+00 0.0000e+00
        1  1    1    2  501    0 +6.9827054144e+01 +2.7971674599e+01 +2.1052386968e+03 2.1065821139e+03 5.0400000000e-03 0.0000e+00 -1.0000e+00
       -5  1    1    2    0  503 +4.3436660579e+01 -2.4223905680e+01 -5.7073127354e+01 7.5846501932e+01 4.6700000000e+00 0.0000e+00 1.0000e+00
        6  2    3    3  502    0 -7.0288480011e+01 +2.1431643766e+02 +1.2344457057e+02 3.1030890338e+02 1.7372693412e+02 0.0000e+00 0.0000e+00
        5  1    6    6  502    0 +2.2586953508e+01 +1.2926686277e+02 +8.5056189581e+01 1.5644953361e+02 4.6700000000e+00 0.0000e+00 -1.0000e+00
       24  2    6    6    0    0 -9.2875433519e+01 +8.5049574891e+01 +3.8388380988e+01 1.5385936977e+02 7.9622619464e+01 0.0000e+00 0.0000e+00
        2  1    8    8  504    0 -8.6002092146e+01 +7.8614371263e+01 +5.9435616197e+01 1.3080203248e+02 2.5500000000e-03 0.0000e+00 -1.0000e+00
       -1  1    8    8    0  504 -6.8733413732e+00 +6.4352036283e+00 -2.1047235209e+01 2.3057337286e+01 5.0400000000e-03 0.0000e+00 1.0000e+00
       23  2    3    3    0    0 -4.2975234713e+01 -2.1806420658e+02 +5.4630182330e+02 5.9600343475e+02 8.5880982153e+01 0.0000e+00 0.0000e+00
        1  1   11   11  505    0 +2.4329929121e+01 -4.8857166320e+01 +1.5699339729e+02 1.6621039369e+02 5.0400000000e-03 0.0000e+00 -1.0000e+00
       -1  1   11   11    0  505 -6.7305163834e+01 -1.6920704026e+02 +3.8930842601e+02 4.2979304106e+02 5.0400000000e-03 0.0000e+00 1.0000e+00
<mgrwt>
<rscale>  1 0.11447499e+03</rscale>
<asrwt>0</asrwt>
<pdfrwt beam="1">  1       21 0.28525309e-01 0.17380384e+03</pdfrwt>
<pdfrwt beam="2">  1        2 0.44666558e+00 0.75398360e+02</pdfrwt>
<totfact> 0.47197442e+02</totfact>
</mgrwt>
<rwgt>
<wgt id='1001'> +3.9556008E-01 </wgt>
<wgt id='1002'> +2.3147252E-01 </wgt>
<wgt id='1003'> +2.3145809E-01 </wgt>
<wgt id='1004'> +2.7907949E-01 </wgt>
<wgt id='1005'> +1.8660508E-01 </wgt>
<wgt id='1006'> +3.5784096E-01 </wgt>
<wgt id='1007'> +2.1372392E-01 </wgt>
<wgt id='1008'> +2.1371109E-01 </wgt>
<wgt id='1009'> +2.5581387E-01 </wgt>
<wgt id='1010'> +1.7359127E-01 </wgt>
<wgt id='1011'> +4.4249543E-01 </wgt>
<wgt id='1012'> +2.5252505E-01 </wgt>
<wgt id='1013'> +2.5250861E-01 </wgt>
<wgt id='1014'> +3.0713891E-01 </wgt>
<wgt id='1015'> +2.0177922E-01 </wgt>
<wgt id='1016'> +3.5241968E-01 </wgt>
<wgt id='1017'> +2.1056601E-01 </wgt>
<wgt id='1018'> +2.1055322E-01 </wgt>
<wgt id='1019'> +2.5250861E-01 </wgt>
<wgt id='1020'> +1.7072063E-01 </wgt>
<wgt id='1021'> +3.1881426E-01 </wgt>
<wgt id='1022'> +1.9442046E-01 </wgt>
<wgt id='1023'> +1.9440910E-01 </wgt>
<wgt id='1024'> +2.3145809E-01 </wgt>
<wgt id='1025'> +1.5881459E-01 </wgt>
<wgt id='1026'> +3.9423617E-01 </wgt>
<wgt id='1027'> +2.2971708E-01 </wgt>
<wgt id='1028'> +2.2970249E-01 </wgt>
<wgt id='1029'> +2.7789653E-01 </wgt>
<wgt id='1030'> +1.8460310E-01 </wgt>
<wgt id='1031'> +4.4772228E-01 </wgt>
<wgt id='1032'> +2.5583036E-01 </wgt>
<wgt id='1033'> +2.5581387E-01 </wgt>
<wgt id='1034'> +3.1004422E-01 </wgt>
<wgt id='1035'> +2.0491369E-01 </wgt>
<wgt id='1036'> +4.0502917E-01 </wgt>
<wgt id='1037'> +2.3621408E-01 </wgt>
<wgt id='1038'> +2.3619940E-01 </wgt>
<wgt id='1039'> +2.8419722E-01 </wgt>
<wgt id='1040'> +1.9062304E-01 </wgt>
<wgt id='1041'> +5.0084695E-01 </wgt>
<wgt id='1042'> +2.7909824E-01 </wgt>
<wgt id='1043'> +2.7907949E-01 </wgt>
<wgt id='1044'> +3.4121693E-01 </wgt>
<wgt id='1045'> +2.2157664E-01 </wgt>
<wgt id='1046'> +3.9556008E-01 </wgt>
<wgt id='1047'> +3.9556008E-01 </wgt>
<wgt id='1048'> +3.9556008E-01 </wgt>
<wgt id='1049'> +3.9692791E-01 </wgt>
<wgt id='1050'> +3.9496487E-01 </wgt>
<wgt id='1051'> +3.9732636E-01 </wgt>
<wgt id='1052'> +3.9609536E-01 </wgt>
<wgt id='1053'> +3.9715258E-01 </wgt>
<wgt id='1054'> +3.9523109E-01 </wgt>
<wgt id='1055'> +3.9587789E-01 </wgt>
<wgt id='1056'> +3.9666069E-01 </wgt>
<wgt id='1057'> +3.9598343E-01 </wgt>
<wgt id='1058'> +3.9600467E-01 </wgt>
<wgt id='1059'> +3.9259402E-01 </wgt>
<wgt id='1060'> +3.9525462E-01 </wgt>
<wgt id='1061'> +3.9662580E-01 </wgt>
<wgt id='1062'> +3.9528451E-01 </wgt>
<wgt id='1063'> +3.9600723E-01 </wgt>
<wgt id='1064'> +3.9524120E-01 </wgt>
<wgt id='1065'> +3.9497587E-01 </wgt>
<wgt id='1066'> +3.9426486E-01 </wgt>
<wgt id='1067'> +3.9628382E-01 </wgt>
<wgt id='1068'> +3.9299358E-01 </wgt>
<wgt id='1069'> +3.9646271E-01 </wgt>
<wgt id='1070'> +3.9577152E-01 </wgt>
<wgt id='1071'> +3.9494200E-01 </wgt>
<wgt id='1072'> +3.9726843E-01 </wgt>
<wgt id='1073'> +3.9670595E-01 </wgt>
<wgt id='1074'> +3.9610640E-01 </wgt>
<wgt id='1075'> +3.9377504E-01 </wgt>
<wgt id='1076'> +3.9667269E-01 </wgt>
<wgt id='1077'> +3.9830215E-01 </wgt>
<wgt id='1078'> +3.9622723E-01 </wgt>
<wgt id='1079'> +3.9760584E-01 </wgt>
<wgt id='1080'> +3.9614420E-01 </wgt>
<wgt id='1081'> +3.9454454E-01 </wgt>
<wgt id='1082'> +3.9691245E-01 </wgt>
<wgt id='1083'> +3.9543965E-01 </wgt>
<wgt id='1084'> +3.9358591E-01 </wgt>
<wgt id='1085'> +3.9688195E-01 </wgt>
<wgt id='1086'> +3.9327440E-01 </wgt>
<wgt id='1087'> +3.9358009E-01 </wgt>
<wgt id='1088'> +3.9612562E-01 </wgt>
<wgt id='1089'> +3.9458852E-01 </wgt>
<wgt id='1090'> +3.9397530E-01 </wgt>
<wgt id='1091'> +3.9511483E-01 </wgt>
<wgt id='1092'> +3.9611266E-01 </wgt>
<wgt id='1093'> +3.9595472E-01 </wgt>
<wgt id='1094'> +3.9613709E-01 </wgt>
<wgt id='1095'> +3.9481316E-01 </wgt>
<wgt id='1096'> +3.9629632E-01 </wgt>
<wgt id='1097'> +3.9652792E-01 </wgt>
<wgt id='1098'> +3.9425502E-01 </wgt>
<wgt id='1099'> +3.9630508E-01 </wgt>
<wgt id='1100'> +3.9575993E-01 </wgt>
<wgt id='1101'> +3.9445484E-01 </wgt>
<wgt id='1102'> +3.9742981E-01 </wgt>
<wgt id='1103'> +3.9643620E-01 </wgt>
<wgt id='1104'> +3.9555839E-01 </wgt>
<wgt id='1105'> +3.9403518E-01 </wgt>
<wgt id='1106'> +3.9666821E-01 </wgt>
<wgt id='1107'> +3.9464214E-01 </wgt>
<wgt id='1108'> +3.9495188E-01 </wgt>
<wgt id='1109'> +3.9697632E-01 </wgt>
<wgt id='1110'> +3.9679941E-01 </wgt>
<wgt id='1111'> +3.9655130E-01 </wgt>
<wgt id='1112'> +3.9788325E-01 </wgt>
<wgt id='1113'> +3.9516084E-01 </wgt>
<wgt id='1114'> +3.9617347E-01 </wgt>
<wgt id='1115'> +3.9674955E-01 </wgt>
<wgt id='1116'> +3.9686908E-01 </wgt>
<wgt id='1117'> +3.9521641E-01 </wgt>
<wgt id='1118'> +3.9522824E-01 </wgt>
<wgt id='1119'> +3.9607014E-01 </wgt>
<wgt id='1120'> +3.9488576E-01 </wgt>
<wgt id='1121'> +3.9508291E-01 </wgt>
<wgt id='1122'> +3.9587687E-01 </wgt>
<wgt id='1123'> +3.9536556E-01 </wgt>
<wgt id='1124'> +3.9567935E-01 </wgt>
<wgt id='1125'> +3.9508521E-01 </wgt>
<wgt id='1126'> +3.9551919E-01 </wgt>
<wgt id='1127'> +3.9533454E-01 </wgt>
<wgt id='1128'> +3.9561845E-01 </wgt>
<wgt id='1129'> +3.9582037E-01 </wgt>
<wgt id='1130'> +3.9536664E-01 </wgt>
<wgt id='1131'> +3.9596474E-01 </wgt>
<wgt id='1132'> +3.9576984E-01 </wgt>
<wgt id='1133'> +3.9554266E-01 </wgt>
<wgt id='1134'> +3.9535802E-01 </wgt>
<wgt id='1135'> +3.9526485E-01 </wgt>
<wgt id='1136'> +3.9530682E-01 </wgt>
<wgt id='1137'> +3.9492692E-01 </wgt>
<wgt id='1138'> +3.9600665E-01 </wgt>
<wgt id='1139'> +3.9561259E-01 </wgt>
<wgt id='1140'> +3.9570250E-01 </wgt>
<wgt id='1141'> +3.9509191E-01 </wgt>
<wgt id='1142'> +3.9604774E-01 </wgt>
<wgt id='1143'> +3.9577263E-01 </wgt>
<wgt id='1144'> +3.9530096E-01 </wgt>
<wgt id='1145'> +3.9533547E-01 </wgt>
<wgt id='1146'> +3.9565666E-01 </wgt>
<wgt id='1147'> +3.9547265E-01 </wgt>
<wgt id='1148'> +3.9556008E-01 </wgt>
<wgt id='1149'> +3.7007986E-01 </wgt>
<wgt id='1150'> +3.6974380E-01 </wgt>
<wgt id='1151'> +3.7071000E-01 </wgt>
<wgt id='1152'> +3.8210275E-01 </wgt>
<wgt id='1153'> +3.6585379E-01 </wgt>
<wgt id='1154'> +3.7870309E-01 </wgt>
<wgt id='1155'> +3.6933635E-01 </wgt>
<wgt id='1156'> +3.5579785E-01 </wgt>
<wgt id='1157'> +3.7579731E-01 </wgt>
<wgt id='1158'> +3.6288228E-01 </wgt>
<wgt id='1159'> +3.6975189E-01 </wgt>
<wgt id='1160'> +3.7554052E-01 </wgt>
<wgt id='1161'> +3.6718023E-01 </wgt>
<wgt id='1162'> +3.6453384E-01 </wgt>
<wgt id='1163'> +3.7176122E-01 </wgt>
<wgt id='1164'> +3.7053572E-01 </wgt>
<wgt id='1165'> +3.7673471E-01 </wgt>
<wgt id='1166'> +3.7664842E-01 </wgt>
<wgt id='1167'> +3.7146444E-01 </wgt>
<wgt id='1168'> +3.6631340E-01 </wgt>
<wgt id='1169'> +3.6599959E-01 </wgt>
<wgt id='1170'> +3.8481042E-01 </wgt>
<wgt id='1171'> +3.8338583E-01 </wgt>
<wgt id='1172'> +3.7094448E-01 </wgt>
<wgt id='1173'> +3.6222127E-01 </wgt>
<wgt id='1174'> +3.8118536E-01 </wgt>
<wgt id='1175'> +3.8357893E-01 </wgt>
<wgt id='1176'> +3.5877649E-01 </wgt>
<wgt id='1177'> +3.7495253E-01 </wgt>
<wgt id='1178'> +3.6411177E-01 </wgt>
<wgt id='1179'> +3.6998256E-01 </wgt>
<wgt id='1180'> +3.7984593E-01 </wgt>
<wgt id='1181'> +3.6502208E-01 </wgt>
<wgt id='1182'> +3.7678772E-01 </wgt>
<wgt id='1183'> +3.7486824E-01 </wgt>
<wgt id='1184'> +3.6315489E-01 </wgt>
<wgt id='1185'> +3.7821068E-01 </wgt>
<wgt id='1186'> +3.6211252E-01 </wgt>
<wgt id='1187'> +3.5754450E-01 </wgt>
<wgt id='1188'> +3.4406676E-01 </wgt>
<wgt id='1189'> +3.5789862E-01 </wgt>
<wgt id='1190'> +3.7451170E-01 </wgt>
<wgt id='1191'> +3.6721708E-01 </wgt>
<wgt id='1192'> +3.6712248E-01 </wgt>
<wgt id='1193'> +3.5986767E-01 </wgt>
<wgt id='1194'> +3.6564517E-01 </wgt>
<wgt id='1195'> +3.7105769E-01 </wgt>
<wgt id='1196'> +3.8088582E-01 </wgt>
<wgt id='1197'> +3.6304847E-01 </wgt>
<wgt id='1198'> +3.6523035E-01 </wgt>
<wgt id='1199'> +3.6542196E-01 </wgt>
<wgt id='1200'> +3.7991857E-01 </wgt>
<wgt id='1201'> +3.6996092E-01 </wgt>
<wgt id='1202'> +3.6819484E-01 </wgt>
<wgt id='1203'> +3.8672125E-01 </wgt>
<wgt id='1204'> +3.7575843E-01 </wgt>
<wgt id='1205'> +3.5364771E-01 </wgt>
<wgt id='1206'> +3.7752474E-01 </wgt>
<wgt id='1207'> +3.8138425E-01 </wgt>
<wgt id='1208'> +3.7338092E-01 </wgt>
<wgt id='1209'> +3.8725970E-01 </wgt>
<wgt id='1210'> +3.5382796E-01 </wgt>
<wgt id='1211'> +3.7595668E-01 </wgt>
<wgt id='1212'> +3.6252426E-01 </wgt>
<wgt id='1213'> +3.7400663E-01 </wgt>
<wgt id='1214'> +3.8424652E-01 </wgt>
<wgt id='1215'> +3.5953318E-01 </wgt>
<wgt id='1216'> +3.7150344E-01 </wgt>
<wgt id='1217'> +3.7364167E-01 </wgt>
<wgt id='1218'> +3.6393694E-01 </wgt>
<wgt id='1219'> +3.6571574E-01 </wgt>
<wgt id='1220'> +3.7550866E-01 </wgt>
<wgt id='1221'> +3.5627995E-01 </wgt>
<wgt id='1222'> +3.7689906E-01 </wgt>
<wgt id='1223'> +3.7514682E-01 </wgt>
<wgt id='1224'> +3.6619335E-01 </wgt>
<wgt id='1225'> +3.9730073E-01 </wgt>
<wgt id='1226'> +3.5915252E-01 </wgt>
<wgt id='1227'> +3.8414784E-01 </wgt>
<wgt id='1228'> +3.8500480E-01 </wgt>
<wgt id='1229'> +3.5796433E-01 </wgt>
<wgt id='1230'> +3.6420797E-01 </wgt>
<wgt id='1231'> +3.7673471E-01 </wgt>
<wgt id='1232'> +3.5539124E-01 </wgt>
<wgt id='1233'> +3.7269160E-01 </wgt>
<wgt id='1234'> +3.8180414E-01 </wgt>
<wgt id='1235'> +3.3493916E-01 </wgt>
<wgt id='1236'> +3.7646275E-01 </wgt>
<wgt id='1237'> +3.6366468E-01 </wgt>
<wgt id='1238'> +3.5698956E-01 </wgt>
<wgt id='1239'> +3.7109733E-01 </wgt>
<wgt id='1240'> +3.7302531E-01 </wgt>
<wgt id='1241'> +3.6862685E-01 </wgt>
<wgt id='1242'> +3.6560824E-01 </wgt>
<wgt id='1243'> +3.6883232E-01 </wgt>
<wgt id='1244'> +3.6860946E-01 </wgt>
<wgt id='1245'> +3.7378275E-01 </wgt>
<wgt id='1246'> +3.5874475E-01 </wgt>
<wgt id='1247'> +3.7543768E-01 </wgt>
<wgt id='1248'> +3.7909091E-01 </wgt>
<wgt id='1249'> +3.6810858E-01 </wgt>
<wgt id='1250'> +3.9638969E-01 </wgt>
<wgt id='1251'> +3.8937588E-01 </wgt>
<wgt id='1252'> +3.9139424E-01 </wgt>
<wgt id='1253'> +3.9815644E-01 </wgt>
<wgt id='1254'> +4.2026804E-01 </wgt>
<wgt id='1255'> +4.5470317E-01 </wgt>
<wgt id='1256'> +4.5892791E-01 </wgt>
<wgt id='1257'> +4.5228800E-01 </wgt>
<wgt id='1258'> +4.5417430E-01 </wgt>
<wgt id='1259'> +4.5496145E-01 </wgt>
<wgt id='1260'> +4.5608991E-01 </wgt>
<wgt id='1261'> +4.5286362E-01 </wgt>
<wgt id='1262'> +4.5570762E-01 </wgt>
<wgt id='1263'> +4.5404945E-01 </wgt>
<wgt id='1264'> +4.5437165E-01 </wgt>
<wgt id='1265'> +4.5492755E-01 </wgt>
<wgt id='1266'> +4.5454241E-01 </wgt>
<wgt id='1267'> +4.5487425E-01 </wgt>
<wgt id='1268'> +4.5648256E-01 </wgt>
<wgt id='1269'> +4.5283787E-01 </wgt>
<wgt id='1270'> +4.5274741E-01 </wgt>
<wgt id='1271'> +4.5649299E-01 </wgt>
<wgt id='1272'> +4.5656487E-01 </wgt>
<wgt id='1273'> +4.5328898E-01 </wgt>
<wgt id='1274'> +4.5374964E-01 </wgt>
<wgt id='1275'> +4.5593933E-01 </wgt>
<wgt id='1276'> +4.5388705E-01 </wgt>
<wgt id='1277'> +4.5560329E-01 </wgt>
<wgt id='1278'> +4.5277374E-01 </wgt>
<wgt id='1279'> +4.5632220E-01 </wgt>
<wgt id='1280'> +4.5560195E-01 </wgt>
<wgt id='1281'> +4.5235866E-01 </wgt>
<wgt id='1282'> +4.5812981E-01 </wgt>
<wgt id='1283'> +4.5101640E-01 </wgt>
<wgt id='1284'> +4.5383253E-01 </wgt>
<wgt id='1285'> +4.5575829E-01 </wgt>
<wgt id='1286'> +4.5810025E-01 </wgt>
<wgt id='1287'> +4.5445509E-01 </wgt>
<wgt id='1288'> +4.5459827E-01 </wgt>
<wgt id='1289'> +4.5475044E-01 </wgt>
<wgt id='1290'> +4.5522578E-01 </wgt>
<wgt id='1291'> +4.5453600E-01 </wgt>
<wgt id='1292'> +4.5659085E-01 </wgt>
<wgt id='1293'> +4.5193233E-01 </wgt>
<wgt id='1294'> +4.5150420E-01 </wgt>
<wgt id='1295'> +4.5595788E-01 </wgt>
<wgt id='1296'> +4.0234354E-01 </wgt>
<wgt id='1297'> +4.0334507E-01 </wgt>
<wgt id='1298'> +4.0148999E-01 </wgt>
<wgt id='1299'> +4.0029971E-01 </wgt>
<wgt id='1300'> +4.0457998E-01 </wgt>
<wgt id='1301'> +4.0115154E-01 </wgt>
<wgt id='1302'> +4.0406617E-01 </wgt>
<wgt id='1303'> +4.0209692E-01 </wgt>
<wgt id='1304'> +4.0245873E-01 </wgt>
<wgt id='1305'> +4.0289097E-01 </wgt>
<wgt id='1306'> +4.0153697E-01 </wgt>
<wgt id='1307'> +4.0519966E-01 </wgt>
<wgt id='1308'> +4.0055041E-01 </wgt>
<wgt id='1309'> +4.0276716E-01 </wgt>
<wgt id='1310'> +4.0170412E-01 </wgt>
<wgt id='1311'> +4.0289365E-01 </wgt>
<wgt id='1312'> +4.0208547E-01 </wgt>
<wgt id='1313'> +4.0284017E-01 </wgt>
<wgt id='1314'> +4.0149823E-01 </wgt>
<wgt id='1315'> +4.0088301E-01 </wgt>
<wgt id='1316'> +4.0371067E-01 </wgt>
<wgt id='1317'> +3.9962218E-01 </wgt>
<wgt id='1318'> +4.0729764E-01 </wgt>
<wgt id='1319'> +4.0381220E-01 </wgt>
<wgt id='1320'> +4.0161767E-01 </wgt>
<wgt id='1321'> +4.0146087E-01 </wgt>
<wgt id='1322'> +4.0280371E-01 </wgt>
<wgt id='1323'> +4.0392049E-01 </wgt>
<wgt id='1324'> +4.0067742E-01 </wgt>
<wgt id='1325'> +4.0234229E-01 </wgt>
<wgt id='1326'> +4.0248937E-01 </wgt>
<wgt id='1327'> +4.0300842E-01 </wgt>
<wgt id='1328'> +4.0206453E-01 </wgt>
<wgt id='1329'> +4.0257045E-01 </wgt>
<wgt id='1330'> +4.0215962E-01 </wgt>
<wgt id='1331'> +4.0355914E-01 </wgt>
<wgt id='1332'> +4.0247749E-01 </wgt>
<wgt id='1333'> +4.0428664E-01 </wgt>
<wgt id='1334'> +3.9938150E-01 </wgt>
<wgt id='1335'> +4.0344168E-01 </wgt>
<wgt id='1336'> +4.0209459E-01 </wgt>
<wgt id='1337'> +4.0234354E-01 </wgt>
<wgt id='1338'> +4.0256550E-01 </wgt>
<wgt id='1339'> +4.0246715E-01 </wgt>
<wgt id='1340'> +4.0239387E-01 </wgt>
<wgt id='1341'> +4.0226729E-01 </wgt>
<wgt id='1342'> +4.0223686E-01 </wgt>
<wgt id='1343'> +4.0217832E-01 </wgt>
<wgt id='1344'> +3.9521033E-01 </wgt>
<wgt id='1345'> +3.9676481E-01 </wgt>
<wgt id='1346'> +3.9368359E-01 </wgt>
<wgt id='1347'> +3.9881701E-01 </wgt>
<wgt id='1348'> +3.9255808E-01 </wgt>
<wgt id='1349'> +3.9465154E-01 </wgt>
<wgt id='1350'> +3.9566930E-01 </wgt>
<wgt id='1351'> +3.9525058E-01 </wgt>
<wgt id='1352'> +3.9518106E-01 </wgt>
<wgt id='1353'> +3.9646099E-01 </wgt>
<wgt id='1354'> +3.9435681E-01 </wgt>
<wgt id='1355'> +3.9420480E-01 </wgt>
<wgt id='1356'> +3.9599354E-01 </wgt>
<wgt id='1357'> +3.9634499E-01 </wgt>
<wgt id='1358'> +3.9451947E-01 </wgt>
<wgt id='1359'> +3.9486255E-01 </wgt>
<wgt id='1360'> +3.9595341E-01 </wgt>
<wgt id='1361'> +3.9740340E-01 </wgt>
<wgt id='1362'> +3.9360956E-01 </wgt>
<wgt id='1363'> +3.9709750E-01 </wgt>
<wgt id='1364'> +3.9294511E-01 </wgt>
<wgt id='1365'> +3.9563950E-01 </wgt>
<wgt id='1366'> +3.9517255E-01 </wgt>
<wgt id='1367'> +3.9384666E-01 </wgt>
<wgt id='1368'> +3.9596686E-01 </wgt>
<wgt id='1369'> +3.9367585E-01 </wgt>
<wgt id='1370'> +3.9671076E-01 </wgt>
<wgt id='1371'> +3.9459443E-01 </wgt>
<wgt id='1372'> +3.9623632E-01 </wgt>
<wgt id='1373'> +3.9586094E-01 </wgt>
<wgt id='1374'> +3.9490318E-01 </wgt>
<wgt id='1375'> +3.9643603E-01 </wgt>
<wgt id='1376'> +3.9484738E-01 </wgt>
<wgt id='1377'> +3.9529578E-01 </wgt>
<wgt id='1378'> +3.9502774E-01 </wgt>
<wgt id='1379'> +3.9605459E-01 </wgt>
<wgt id='1380'> +3.9593672E-01 </wgt>
<wgt id='1381'> +3.9403676E-01 </wgt>
<wgt id='1382'> +3.9457320E-01 </wgt>
<wgt id='1383'> +3.9506622E-01 </wgt>
<wgt id='1384'> +3.9636703E-01 </wgt>
<wgt id='1385'> +3.9521033E-01 </wgt>
<wgt id='1386'> +3.9537470E-01 </wgt>
<wgt id='1387'> +3.9529551E-01 </wgt>
<wgt id='1388'> +3.9525902E-01 </wgt>
<wgt id='1389'> +3.9514346E-01 </wgt>
<wgt id='1390'> +3.9511969E-01 </wgt>
<wgt id='1391'> +3.9511803E-01 </wgt>
<wgt id='1392'> +4.1961745E-01 </wgt>
<wgt id='1393'> +4.1965913E-01 </wgt>
<wgt id='1394'> +4.1957528E-01 </wgt>
<wgt id='1395'> +4.1983959E-01 </wgt>
<wgt id='1396'> +4.1948083E-01 </wgt>
<wgt id='1397'> +4.2128462E-01 </wgt>
<wgt id='1398'> +4.1801549E-01 </wgt>
<wgt id='1399'> +4.2246938E-01 </wgt>
<wgt id='1400'> +4.1611937E-01 </wgt>
<wgt id='1401'> +4.1767276E-01 </wgt>
<wgt id='1402'> +4.2202240E-01 </wgt>
<wgt id='1403'> +4.1896169E-01 </wgt>
<wgt id='1404'> +4.2095118E-01 </wgt>
<wgt id='1405'> +4.1925445E-01 </wgt>
<wgt id='1406'> +4.2015442E-01 </wgt>
<wgt id='1407'> +4.1896265E-01 </wgt>
<wgt id='1408'> +4.2008621E-01 </wgt>
<wgt id='1409'> +4.1907472E-01 </wgt>
<wgt id='1410'> +4.2022219E-01 </wgt>
<wgt id='1411'> +4.1974575E-01 </wgt>
<wgt id='1412'> +4.1954170E-01 </wgt>
<wgt id='1413'> +4.2190393E-01 </wgt>
<wgt id='1414'> +4.1718548E-01 </wgt>
<wgt id='1415'> +4.2160930E-01 </wgt>
<wgt id='1416'> +4.1741576E-01 </wgt>
<wgt id='1417'> +4.1952909E-01 </wgt>
<wgt id='1418'> +4.1968709E-01 </wgt>
<wgt id='1419'> +4.2037105E-01 </wgt>
<wgt id='1420'> +4.1907469E-01 </wgt>
<wgt id='1421'> +4.2131005E-01 </wgt>
<wgt id='1422'> +4.1769981E-01 </wgt>
<wgt id='1423'> +4.2141857E-01 </wgt>
<wgt id='1424'> +4.1832497E-01 </wgt>
<wgt id='1425'> +4.1979069E-01 </wgt>
<wgt id='1426'> +4.1942002E-01 </wgt>
<wgt id='1427'> +4.1905311E-01 </wgt>
<wgt id='1428'> +4.2056985E-01 </wgt>
<wgt id='1429'> +4.1941580E-01 </wgt>
<wgt id='1430'> +4.1985062E-01 </wgt>
<wgt id='1431'> +4.1967046E-01 </wgt>
<wgt id='1432'> +4.1952458E-01 </wgt>
<wgt id='1433'> +4.1791889E-01 </wgt>
<wgt id='1434'> +4.2132324E-01 </wgt>
<wgt id='1435'> +4.1949199E-01 </wgt>
<wgt id='1436'> +4.2037303E-01 </wgt>
<wgt id='1437'> +4.1957094E-01 </wgt>
<wgt id='1438'> +4.1986594E-01 </wgt>
<wgt id='1439'> +4.2084170E-01 </wgt>
<wgt id='1440'> +4.1667489E-01 </wgt>
<wgt id='1441'> +4.2056580E-01 </wgt>
<wgt id='1442'> +4.1929746E-01 </wgt>
<wgt id='1443'> +4.1975151E-01 </wgt>
<wgt id='1444'> +4.1980519E-01 </wgt>
<wgt id='1445'> +4.1968639E-01 </wgt>
<wgt id='1446'> +4.1997979E-01 </wgt>
<wgt id='1447'> +4.1958984E-01 </wgt>
<wgt id='1448'> +4.2153291E-01 </wgt>
<wgt id='1449'> +4.1807109E-01 </wgt>
<wgt id='1450'> +4.2252416E-01 </wgt>
<wgt id='1451'> +4.1666607E-01 </wgt>
<wgt id='1452'> +4.1790313E-01 </wgt>
<wgt id='1453'> +4.2151829E-01 </wgt>
<wgt id='1454'> +4.1900636E-01 </wgt>
<wgt id='1455'> +4.2137584E-01 </wgt>
<wgt id='1456'> +4.1931936E-01 </wgt>
<wgt id='1457'> +4.2050091E-01 </wgt>
<wgt id='1458'> +4.1915009E-01 </wgt>
<wgt id='1459'> +4.2007043E-01 </wgt>
<wgt id='1460'> +4.1917767E-01 </wgt>
<wgt id='1461'> +4.2035491E-01 </wgt>
<wgt id='1462'> +4.2004031E-01 </wgt>
<wgt id='1463'> +4.1948470E-01 </wgt>
<wgt id='1464'> +4.2175801E-01 </wgt>
<wgt id='1465'> +4.1709027E-01 </wgt>
<wgt id='1466'> +4.2225954E-01 </wgt>
<wgt id='1467'> +4.1778538E-01 </wgt>
<wgt id='1468'> +4.1905090E-01 </wgt>
<wgt id='1469'> +4.2047671E-01 </wgt>
<wgt id='1470'> +4.2043996E-01 </wgt>
<wgt id='1471'> +4.1929551E-01 </wgt>
<wgt id='1472'> +4.2111524E-01 </wgt>
<wgt id='1473'> +4.1811824E-01 </wgt>
<wgt id='1474'> +4.2105865E-01 </wgt>
<wgt id='1475'> +4.1832185E-01 </wgt>
<wgt id='1476'> +4.1978454E-01 </wgt>
<wgt id='1477'> +4.1969941E-01 </wgt>
<wgt id='1478'> +4.1925474E-01 </wgt>
<wgt id='1479'> +4.2062915E-01 </wgt>
<wgt id='1480'> +4.1954729E-01 </wgt>
<wgt id='1481'> +4.2001937E-01 </wgt>
<wgt id='1482'> +4.1971371E-01 </wgt>
<wgt id='1483'> +4.1973928E-01 </wgt>
<wgt id='1484'> +4.1794953E-01 </wgt>
<wgt id='1485'> +4.2149773E-01 </wgt>
<wgt id='1486'> +4.1984928E-01 </wgt>
<wgt id='1487'> +4.2033129E-01 </wgt>
<wgt id='1488'> +4.1960778E-01 </wgt>
<wgt id='1489'> +4.2014332E-01 </wgt>
<wgt id='1490'> +4.2130233E-01 </wgt>
<wgt id='1491'> +4.1660896E-01 </wgt>
<wgt id='1492'> +4.2109922E-01 </wgt>
<wgt id='1493'> +4.1920831E-01 </wgt>
<wgt id='1494'> +4.0060004E-01 </wgt>
<wgt id='1495'> +4.0112605E-01 </wgt>
<wgt id='1496'> +4.0108391E-01 </wgt>
<wgt id='1497'> +4.0093870E-01 </wgt>
<wgt id='1498'> +4.0006715E-01 </wgt>
<wgt id='1499'> +4.0051826E-01 </wgt>
<wgt id='1500'> +4.0384616E-01 </wgt>
<wgt id='1501'> +4.0317676E-01 </wgt>
<wgt id='1502'> +4.0253437E-01 </wgt>
<wgt id='1503'> +4.0183861E-01 </wgt>
<wgt id='1504'> +4.0119190E-01 </wgt>
<wgt id='1505'> +3.9994666E-01 </wgt>
<wgt id='1506'> +3.9931408E-01 </wgt>
<wgt id='1507'> +3.9872856E-01 </wgt>
<wgt id='1508'> +4.0051826E-01 </wgt>
<wgt id='1509'> +4.0086085E-01 </wgt>
<wgt id='1510'> +4.0067509E-01 </wgt>
<wgt id='1511'> +4.0037592E-01 </wgt>
<wgt id='1512'> +4.0025273E-01 </wgt>
<wgt id='1513'> +3.9569700E-01 </wgt>
<wgt id='1514'> +3.9554858E-01 </wgt>
<wgt id='1515'> +3.9586766E-01 </wgt>
<wgt id='1516'> +3.9640140E-01 </wgt>
<wgt id='1517'> +3.9498246E-01 </wgt>
<wgt id='1518'> +3.9635046E-01 </wgt>
<wgt id='1519'> +3.9543077E-01 </wgt>
<wgt id='1520'> +3.9922385E-01 </wgt>
<wgt id='1521'> +3.9217559E-01 </wgt>
<wgt id='1522'> +3.9472165E-01 </wgt>
<wgt id='1523'> +3.9664689E-01 </wgt>
<wgt id='1524'> +3.9855862E-01 </wgt>
<wgt id='1525'> +3.9445583E-01 </wgt>
<wgt id='1526'> +3.9594892E-01 </wgt>
<wgt id='1527'> +3.9535860E-01 </wgt>
<wgt id='1528'> +3.9477311E-01 </wgt>
<wgt id='1529'> +3.9669824E-01 </wgt>
<wgt id='1530'> +3.9698995E-01 </wgt>
<wgt id='1531'> +3.9494876E-01 </wgt>
<wgt id='1532'> +3.9474247E-01 </wgt>
<wgt id='1533'> +3.9698470E-01 </wgt>
<wgt id='1534'> +3.9343985E-01 </wgt>
<wgt id='1535'> +3.9726893E-01 </wgt>
<wgt id='1536'> +3.9512362E-01 </wgt>
<wgt id='1537'> +3.9623350E-01 </wgt>
<wgt id='1538'> +3.9507679E-01 </wgt>
<wgt id='1539'> +3.9696767E-01 </wgt>
<wgt id='1540'> +3.9652908E-01 </wgt>
<wgt id='1541'> +3.9487432E-01 </wgt>
<wgt id='1542'> +3.9459752E-01 </wgt>
<wgt id='1543'> +3.9887124E-01 </wgt>
<wgt id='1544'> +3.9597828E-01 </wgt>
<wgt id='1545'> +3.9490321E-01 </wgt>
<wgt id='1546'> +3.9479685E-01 </wgt>
<wgt id='1547'> +3.9715290E-01 </wgt>
<wgt id='1548'> +3.9683072E-01 </wgt>
<wgt id='1549'> +3.9494407E-01 </wgt>
<wgt id='1550'> +3.9569050E-01 </wgt>
<wgt id='1551'> +3.9564798E-01 </wgt>
<wgt id='1552'> +3.9578682E-01 </wgt>
<wgt id='1553'> +3.9558690E-01 </wgt>
<wgt id='1554'> +3.9604090E-01 </wgt>
<wgt id='1555'> +3.9455273E-01 </wgt>
<wgt id='1556'> +3.9573151E-01 </wgt>
<wgt id='1557'> +3.9652812E-01 </wgt>
<wgt id='1558'> +3.9324955E-01 </wgt>
<wgt id='1559'> +3.9690761E-01 </wgt>
<wgt id='1560'> +3.9657635E-01 </wgt>
<wgt id='1561'> +3.9523878E-01 </wgt>
<wgt id='1562'> +3.9386111E-01 </wgt>
<wgt id='1563'> +3.9659875E-01 </wgt>
<wgt id='1564'> +3.9569700E-01 </wgt>
<wgt id='1565'> +3.9608147E-01 </wgt>
<wgt id='1566'> +3.9381509E-01 </wgt>
<wgt id='1567'> +3.9503724E-01 </wgt>
<wgt id='1568'> +3.9788905E-01 </wgt>
<wgt id='1569'> +3.9731407E-01 </wgt>
<wgt id='1570'> +3.9672957E-01 </wgt>
<wgt id='1571'> +3.9616867E-01 </wgt>
<wgt id='1572'> +3.9556570E-01 </wgt>
<wgt id='1573'> +3.9447423E-01 </wgt>
<wgt id='1574'> +3.9378489E-01 </wgt>
<wgt id='1575'> +3.9323950E-01 </wgt>
<wgt id='1576'> +3.9503724E-01 </wgt>
<wgt id='1577'> +3.9543269E-01 </wgt>
<wgt id='1578'> +3.9521670E-01 </wgt>
<wgt id='1579'> +3.9484604E-01 </wgt>
<wgt id='1580'> +3.9469153E-01 </wgt>
<wgt id='1581'> +4.0066571E-01 </wgt>
<wgt id='1582'> +4.0042966E-01 </wgt>
<wgt id='1583'> +4.0226039E-01 </wgt>
<wgt id='1584'> +3.9891988E-01 </wgt>
<wgt id='1585'> +4.0152733E-01 </wgt>
<wgt id='1586'> +3.9957127E-01 </wgt>
<wgt id='1587'> +3.9357968E-01 </wgt>
<wgt id='1588'> +4.0088624E-01 </wgt>
<wgt id='1589'> +4.0090331E-01 </wgt>
<wgt id='1590'> +3.9967475E-01 </wgt>
<wgt id='1591'> +3.9995094E-01 </wgt>
<wgt id='1592'> +4.0276317E-01 </wgt>
<wgt id='1593'> +4.0164686E-01 </wgt>
<wgt id='1594'> +3.9992441E-01 </wgt>
<wgt id='1595'> +4.0074953E-01 </wgt>
<wgt id='1596'> +4.0315702E-01 </wgt>
<wgt id='1597'> +4.0170129E-01 </wgt>
<wgt id='1598'> +4.0233349E-01 </wgt>
<wgt id='1599'> +4.0078364E-01 </wgt>
<wgt id='1600'> +4.0190863E-01 </wgt>
<wgt id='1601'> +4.0027914E-01 </wgt>
<wgt id='1602'> +4.0025622E-01 </wgt>
<wgt id='1603'> +4.0038661E-01 </wgt>
<wgt id='1604'> +4.0106242E-01 </wgt>
<wgt id='1605'> +4.0120810E-01 </wgt>
<wgt id='1606'> +4.0058297E-01 </wgt>
<wgt id='1607'> +4.0163474E-01 </wgt>
<wgt id='1608'> +3.9998805E-01 </wgt>
<wgt id='1609'> +4.0027207E-01 </wgt>
<wgt id='1610'> +4.0034450E-01 </wgt>
<wgt id='1611'> +4.0190277E-01 </wgt>
<wgt id='1612'> +3.9085578E-01 </wgt>
<wgt id='1613'> +3.8986937E-01 </wgt>
<wgt id='1614'> +3.9238377E-01 </wgt>
<wgt id='1615'> +3.9228405E-01 </wgt>
<wgt id='1616'> +3.9060552E-01 </wgt>
<wgt id='1617'> +3.9070842E-01 </wgt>
<wgt id='1618'> +3.9111124E-01 </wgt>
<wgt id='1619'> +3.8899651E-01 </wgt>
<wgt id='1620'> +3.9080118E-01 </wgt>
<wgt id='1621'> +3.9171793E-01 </wgt>
<wgt id='1622'> +3.9161885E-01 </wgt>
<wgt id='1623'> +3.9070113E-01 </wgt>
<wgt id='1624'> +3.9063359E-01 </wgt>
<wgt id='1625'> +3.9172832E-01 </wgt>
<wgt id='1626'> +3.9291185E-01 </wgt>
<wgt id='1627'> +3.9022705E-01 </wgt>
<wgt id='1628'> +3.9094671E-01 </wgt>
<wgt id='1629'> +3.9125843E-01 </wgt>
<wgt id='1630'> +3.9158474E-01 </wgt>
<wgt id='1631'> +3.9114380E-01 </wgt>
<wgt id='1632'> +3.9159986E-01 </wgt>
<wgt id='1633'> +3.8985766E-01 </wgt>
<wgt id='1634'> +3.9208227E-01 </wgt>
<wgt id='1635'> +3.9038776E-01 </wgt>
<wgt id='1636'> +3.9147785E-01 </wgt>
<wgt id='1637'> +3.9195832E-01 </wgt>
<wgt id='1638'> +3.9058475E-01 </wgt>
<wgt id='1639'> +3.9184281E-01 </wgt>
<wgt id='1640'> +3.9108753E-01 </wgt>
<wgt id='1641'> +3.8706672E-01 </wgt>
<wgt id='1642'> +3.9003992E-01 </wgt>
<wgt id='1643'> +3.9030749E-01 </wgt>
<wgt id='1644'> +3.9003439E-01 </wgt>
<wgt id='1645'> +3.9108025E-01 </wgt>
<wgt id='1646'> +3.9093634E-01 </wgt>
<wgt id='1647'> +3.9038362E-01 </wgt>
<wgt id='1648'> +3.9063817E-01 </wgt>
<wgt id='1649'> +3.9138148E-01 </wgt>
<wgt id='1650'> +3.9013816E-01 </wgt>
<wgt id='1651'> +3.9092487E-01 </wgt>
<wgt id='1652'> +3.9125919E-01 </wgt>
<wgt id='1653'> +3.9059865E-01 </wgt>
<wgt id='1654'> +3.9012048E-01 </wgt>
<wgt id='1655'> +3.9156968E-01 </wgt>
<wgt id='1656'> +3.9064915E-01 </wgt>
<wgt id='1657'> +3.9148924E-01 </wgt>
<wgt id='1658'> +3.9140825E-01 </wgt>
<wgt id='1659'> +3.9196671E-01 </wgt>
<wgt id='1660'> +3.9195008E-01 </wgt>
<wgt id='1661'> +3.9139427E-01 </wgt>
<wgt id='1662'> +3.9370946E-01 </wgt>
<wgt id='1663'> +3.9325494E-01 </wgt>
<wgt id='1664'> +3.9063898E-01 </wgt>
<wgt id='1665'> +3.9145866E-01 </wgt>
<wgt id='1666'> +3.9265046E-01 </wgt>
<wgt id='1667'> +3.9129906E-01 </wgt>
<wgt id='1668'> +3.9091628E-01 </wgt>
<wgt id='1669'> +3.9149090E-01 </wgt>
<wgt id='1670'> +3.9412853E-01 </wgt>
<wgt id='1671'> +3.9287134E-01 </wgt>
<wgt id='1672'> +3.9106044E-01 </wgt>
<wgt id='1673'> +3.9191370E-01 </wgt>
<wgt id='1674'> +3.9066511E-01 </wgt>
<wgt id='1675'> +3.9148120E-01 </wgt>
<wgt id='1676'> +3.9217693E-01 </wgt>
<wgt id='1677'> +3.9160932E-01 </wgt>
<wgt id='1678'> +3.9027665E-01 </wgt>
<wgt id='1679'> +3.9163999E-01 </wgt>
<wgt id='1680'> +3.9013694E-01 </wgt>
<wgt id='1681'> +3.9125281E-01 </wgt>
<wgt id='1682'> +3.8998523E-01 </wgt>
<wgt id='1683'> +3.9138454E-01 </wgt>
<wgt id='1684'> +3.9013868E-01 </wgt>
<wgt id='1685'> +3.9007589E-01 </wgt>
<wgt id='1686'> +3.9106341E-01 </wgt>
<wgt id='1687'> +3.9071450E-01 </wgt>
<wgt id='1688'> +3.9164229E-01 </wgt>
<wgt id='1689'> +3.9056672E-01 </wgt>
<wgt id='1690'> +3.9186897E-01 </wgt>
<wgt id='1691'> +3.9158792E-01 </wgt>
<wgt id='1692'> +3.9131534E-01 </wgt>
<wgt id='1693'> +3.8971521E-01 </wgt>
<wgt id='1694'> +3.9053748E-01 </wgt>
<wgt id='1695'> +3.9156045E-01 </wgt>
<wgt id='1696'> +3.9167377E-01 </wgt>
<wgt id='1697'> +3.9089831E-01 </wgt>
<wgt id='1698'> +3.9010370E-01 </wgt>
<wgt id='1699'> +3.9176572E-01 </wgt>
<wgt id='1700'> +3.8964499E-01 </wgt>
<wgt id='1701'> +3.9133369E-01 </wgt>
<wgt id='1702'> +3.9061915E-01 </wgt>
<wgt id='1703'> +3.9116631E-01 </wgt>
<wgt id='1704'> +3.9043686E-01 </wgt>
<wgt id='1705'> +3.9166544E-01 </wgt>
<wgt id='1706'> +3.9150153E-01 </wgt>
<wgt id='1707'> +3.9058274E-01 </wgt>
<wgt id='1708'> +3.9101827E-01 </wgt>
<wgt id='1709'> +3.9174871E-01 </wgt>
<wgt id='1710'> +3.9082395E-01 </wgt>
<wgt id='1711'> +3.9113491E-01 </wgt>
<wgt id='1712'> +3.9108249E-01 </wgt>
<wgt id='1713'> +3.8598793E-01 </wgt>
<wgt id='1714'> +3.9450700E-01 </wgt>
<wgt id='1715'> +3.7652933E-01 </wgt>
<wgt id='1716'> +3.7052357E-01 </wgt>
<wgt id='1717'> +3.7549730E-01 </wgt>
<wgt id='1718'> +3.5477546E-01 </wgt>
<wgt id='1719'> +3.6325944E-01 </wgt>
<wgt id='1720'> +3.8593431E-01 </wgt>
<wgt id='1721'> +3.5920753E-01 </wgt>
<wgt id='1722'> +3.7231767E-01 </wgt>
<wgt id='1723'> +3.8078869E-01 </wgt>
<wgt id='1724'> +3.9273076E-01 </wgt>
<wgt id='1725'> +3.8493045E-01 </wgt>
<wgt id='1726'> +3.8780998E-01 </wgt>
<wgt id='1727'> +3.7473453E-01 </wgt>
<wgt id='1728'> +3.8075630E-01 </wgt>
<wgt id='1729'> +3.7819067E-01 </wgt>
<wgt id='1730'> +3.8405671E-01 </wgt>
<wgt id='1731'> +3.6467469E-01 </wgt>
<wgt id='1732'> +3.8139847E-01 </wgt>
<wgt id='1733'> +3.8901783E-01 </wgt>
<wgt id='1734'> +3.8354016E-01 </wgt>
<wgt id='1735'> +3.7036587E-01 </wgt>
<wgt id='1736'> +3.7184172E-01 </wgt>
<wgt id='1737'> +3.7671080E-01 </wgt>
<wgt id='1738'> +3.7689318E-01 </wgt>
<wgt id='1739'> +3.6035533E-01 </wgt>
<wgt id='1740'> +3.7062187E-01 </wgt>
<wgt id='1741'> +3.8259991E-01 </wgt>
<wgt id='1742'> +3.9060957E-01 </wgt>
<wgt id='1743'> +3.7889866E-01 </wgt>
<wgt id='1744'> +3.7905246E-01 </wgt>
<wgt id='1745'> +3.6498102E-01 </wgt>
<wgt id='1746'> +3.5143894E-01 </wgt>
<wgt id='1747'> +3.7149228E-01 </wgt>
<wgt id='1748'> +3.7565192E-01 </wgt>
<wgt id='1749'> +3.8267135E-01 </wgt>
<wgt id='1750'> +3.8072121E-01 </wgt>
<wgt id='1751'> +3.7440744E-01 </wgt>
<wgt id='1752'> +3.5709846E-01 </wgt>
<wgt id='1753'> +3.7216517E-01 </wgt>
<wgt id='1754'> +3.9043304E-01 </wgt>
<wgt id='1755'> +3.7665593E-01 </wgt>
<wgt id='1756'> +3.7506684E-01 </wgt>
<wgt id='1757'> +3.6771382E-01 </wgt>
<wgt id='1758'> +3.6314114E-01 </wgt>
<wgt id='1759'> +3.6900840E-01 </wgt>
<wgt id='1760'> +3.6314356E-01 </wgt>
<wgt id='1761'> +3.7560317E-01 </wgt>
<wgt id='1762'> +3.7473453E-01 </wgt>
<wgt id='1763'> +3.7349371E-01 </wgt>
<wgt id='1764'> +3.8879680E-01 </wgt>
<wgt id='1765'> +3.8052785E-01 </wgt>
<wgt id='1766'> +4.0208317E-01 </wgt>
<wgt id='1767'> +3.8329502E-01 </wgt>
<wgt id='1768'> +3.7149589E-01 </wgt>
<wgt id='1769'> +3.7377206E-01 </wgt>
<wgt id='1770'> +3.7755622E-01 </wgt>
<wgt id='1771'> +3.7541543E-01 </wgt>
<wgt id='1772'> +3.8486180E-01 </wgt>
<wgt id='1773'> +3.7669737E-01 </wgt>
<wgt id='1774'> +3.8285979E-01 </wgt>
<wgt id='1775'> +3.8777922E-01 </wgt>
<wgt id='1776'> +3.8363257E-01 </wgt>
<wgt id='1777'> +3.7863121E-01 </wgt>
<wgt id='1778'> +3.7264756E-01 </wgt>
<wgt id='1779'> +3.7191054E-01 </wgt>
<wgt id='1780'> +3.8339591E-01 </wgt>
<wgt id='1781'> +3.7270636E-01 </wgt>
<wgt id='1782'> +3.8568882E-01 </wgt>
<wgt id='1783'> +3.6112290E-01 </wgt>
<wgt id='1784'> +3.8279420E-01 </wgt>
<wgt id='1785'> +3.7025790E-01 </wgt>
<wgt id='1786'> +3.8535485E-01 </wgt>
<wgt id='1787'> +3.8489057E-01 </wgt>
<wgt id='1788'> +3.7534920E-01 </wgt>
<wgt id='1789'> +3.7843101E-01 </wgt>
<wgt id='1790'> +3.6929444E-01 </wgt>
<wgt id='1791'> +3.6035577E-01 </wgt>
<wgt id='1792'> +3.7168308E-01 </wgt>
<wgt id='1793'> +3.9816506E-01 </wgt>
<wgt id='1794'> +3.8487627E-01 </wgt>
<wgt id='1795'> +3.8272409E-01 </wgt>
<wgt id='1796'> +3.7010963E-01 </wgt>
<wgt id='1797'> +3.6119758E-01 </wgt>
<wgt id='1798'> +4.0252461E-01 </wgt>
<wgt id='1799'> +3.9133558E-01 </wgt>
<wgt id='1800'> +3.8023605E-01 </wgt>
<wgt id='1801'> +3.7519895E-01 </wgt>
<wgt id='1802'> +3.7835624E-01 </wgt>
<wgt id='1803'> +3.7641373E-01 </wgt>
<wgt id='1804'> +3.6765257E-01 </wgt>
<wgt id='1805'> +3.7732608E-01 </wgt>
<wgt id='1806'> +3.8809351E-01 </wgt>
<wgt id='1807'> +3.6039188E-01 </wgt>
<wgt id='1808'> +3.8274935E-01 </wgt>
<wgt id='1809'> +3.7502578E-01 </wgt>
<wgt id='1810'> +3.7331652E-01 </wgt>
<wgt id='1811'> +3.8039012E-01 </wgt>
<wgt id='1812'> +3.6632156E-01 </wgt>
<wgt id='1813'> +3.8548366E-01 </wgt>
<wgt id='1814'> +3.6135270E-01 </wgt>
<wgt id='1815'> +3.7888045E-01 </wgt>
<wgt id='1816'> +4.0453757E-01 </wgt>
<wgt id='1817'> +4.0861503E-01 </wgt>
<wgt id='1818'> +3.9016970E-01 </wgt>
<wgt id='1819'> +4.0335270E-01 </wgt>
<wgt id='1820'> +4.1046070E-01 </wgt>
<wgt id='1821'> +4.1983912E-01 </wgt>
<wgt id='1822'> +4.0452750E-01 </wgt>
<wgt id='1823'> +4.0701787E-01 </wgt>
<wgt id='1824'> +3.9126108E-01 </wgt>
<wgt id='1825'> +4.0910769E-01 </wgt>
<wgt id='1826'> +4.0447967E-01 </wgt>
<wgt id='1827'> +3.9530451E-01 </wgt>
<wgt id='1828'> +4.1321870E-01 </wgt>
<wgt id='1829'> +4.0228858E-01 </wgt>
<wgt id='1830'> +3.9299838E-01 </wgt>
<wgt id='1831'> +3.9815388E-01 </wgt>
<wgt id='1832'> +4.1046041E-01 </wgt>
<wgt id='1833'> +3.9945090E-01 </wgt>
<wgt id='1834'> +4.0652249E-01 </wgt>
<wgt id='1835'> +4.0676999E-01 </wgt>
<wgt id='1836'> +4.0889628E-01 </wgt>
<wgt id='1837'> +4.0970725E-01 </wgt>
<wgt id='1838'> +4.0105254E-01 </wgt>
<wgt id='1839'> +4.2445124E-01 </wgt>
<wgt id='1840'> +4.0325709E-01 </wgt>
<wgt id='1841'> +3.9594225E-01 </wgt>
<wgt id='1842'> +4.1059211E-01 </wgt>
<wgt id='1843'> +4.0245655E-01 </wgt>
<wgt id='1844'> +4.0182484E-01 </wgt>
<wgt id='1845'> +3.9951541E-01 </wgt>
<wgt id='1846'> +4.0901662E-01 </wgt>
<wgt id='1847'> +4.0250425E-01 </wgt>
<wgt id='1848'> +3.9930607E-01 </wgt>
<wgt id='1849'> +4.0072422E-01 </wgt>
<wgt id='1850'> +4.1440307E-01 </wgt>
<wgt id='1851'> +4.0913096E-01 </wgt>
<wgt id='1852'> +4.0659629E-01 </wgt>
<wgt id='1853'> +3.9179910E-01 </wgt>
<wgt id='1854'> +4.1106614E-01 </wgt>
<wgt id='1855'> +4.1390411E-01 </wgt>
<wgt id='1856'> +4.0479611E-01 </wgt>
<wgt id='1857'> +4.1899955E-01 </wgt>
<wgt id='1858'> +4.0226266E-01 </wgt>
<wgt id='1859'> +4.1014651E-01 </wgt>
<wgt id='1860'> +4.0656737E-01 </wgt>
<wgt id='1861'> +4.0658581E-01 </wgt>
<wgt id='1862'> +4.2019703E-01 </wgt>
<wgt id='1863'> +3.9485294E-01 </wgt>
<wgt id='1864'> +4.0395972E-01 </wgt>
<wgt id='1865'> +3.8945472E-01 </wgt>
<wgt id='1866'> +3.9958849E-01 </wgt>
<wgt id='1867'> +4.0642670E-01 </wgt>
<wgt id='1868'> +4.0136589E-01 </wgt>
<wgt id='1869'> +4.0909663E-01 </wgt>
<wgt id='1870'> +4.0833625E-01 </wgt>
<wgt id='1871'> +4.0648376E-01 </wgt>
<wgt id='1872'> +4.0261265E-01 </wgt>
<wgt id='1873'> +4.1616312E-01 </wgt>
<wgt id='1874'> +3.9785389E-01 </wgt>
<wgt id='1875'> +3.8799221E-01 </wgt>
<wgt id='1876'> +3.9893368E-01 </wgt>
<wgt id='1877'> +3.9819980E-01 </wgt>
<wgt id='1878'> +3.8896672E-01 </wgt>
<wgt id='1879'> +4.1796281E-01 </wgt>
<wgt id='1880'> +3.8834430E-01 </wgt>
<wgt id='1881'> +4.1548202E-01 </wgt>
<wgt id='1882'> +4.0647170E-01 </wgt>
<wgt id='1883'> +4.2971897E-01 </wgt>
<wgt id='1884'> +4.0372078E-01 </wgt>
<wgt id='1885'> +4.0857483E-01 </wgt>
<wgt id='1886'> +3.9418678E-01 </wgt>
<wgt id='1887'> +4.1941882E-01 </wgt>
<wgt id='1888'> +4.0400952E-01 </wgt>
<wgt id='1889'> +4.1229898E-01 </wgt>
<wgt id='1890'> +4.1473564E-01 </wgt>
<wgt id='1891'> +3.8883522E-01 </wgt>
<wgt id='1892'> +3.9559628E-01 </wgt>
<wgt id='1893'> +4.0373721E-01 </wgt>
<wgt id='1894'> +4.1132803E-01 </wgt>
<wgt id='1895'> +4.0933498E-01 </wgt>
<wgt id='1896'> +4.0195121E-01 </wgt>
<wgt id='1897'> +4.0345965E-01 </wgt>
<wgt id='1898'> +3.9817412E-01 </wgt>
<wgt id='1899'> +4.0316101E-01 </wgt>
<wgt id='1900'> +4.1411119E-01 </wgt>
<wgt id='1901'> +3.8617412E-01 </wgt>
<wgt id='1902'> +3.9966730E-01 </wgt>
<wgt id='1903'> +3.9547979E-01 </wgt>
<wgt id='1904'> +4.0370598E-01 </wgt>
<wgt id='1905'> +4.0777525E-01 </wgt>
<wgt id='1906'> +3.9532004E-01 </wgt>
<wgt id='1907'> +4.0802304E-01 </wgt>
<wgt id='1908'> +4.1267949E-01 </wgt>
<wgt id='1909'> +4.0718860E-01 </wgt>
<wgt id='1910'> +4.1342746E-01 </wgt>
<wgt id='1911'> +3.7617482E-01 </wgt>
<wgt id='1912'> +4.0966286E-01 </wgt>
<wgt id='1913'> +4.0496116E-01 </wgt>
<wgt id='1914'> +4.1552361E-01 </wgt>
<wgt id='1915'> +4.0757537E-01 </wgt>
<wgt id='1916'> +3.9469302E-01 </wgt>
<wgt id='1917'> +4.6205395E-01 </wgt>
<wgt id='1918'> +4.7722875E-01 </wgt>
<wgt id='1919'> +4.0453757E-01 </wgt>
<wgt id='1920'> +4.0861503E-01 </wgt>
<wgt id='1921'> +3.9016970E-01 </wgt>
<wgt id='1922'> +4.0335270E-01 </wgt>
<wgt id='1923'> +4.1046070E-01 </wgt>
<wgt id='1924'> +4.1983912E-01 </wgt>
<wgt id='1925'> +4.0452750E-01 </wgt>
<wgt id='1926'> +4.0701787E-01 </wgt>
<wgt id='1927'> +3.9126108E-01 </wgt>
<wgt id='1928'> +4.0910769E-01 </wgt>
<wgt id='1929'> +4.0447967E-01 </wgt>
<wgt id='1930'> +3.9530451E-01 </wgt>
<wgt id='1931'> +4.1321870E-01 </wgt>
<wgt id='1932'> +4.0228858E-01 </wgt>
<wgt id='1933'> +3.9299838E-01 </wgt>
<wgt id='1934'> +3.9815388E-01 </wgt>
<wgt id='1935'> +4.1046041E-01 </wgt>
<wgt id='1936'> +3.9945090E-01 </wgt>
<wgt id='1937'> +4.0652249E-01 </wgt>
<wgt id='1938'> +4.0676999E-01 </wgt>
<wgt id='1939'> +4.0889628E-01 </wgt>
<wgt id='1940'> +4.0970725E-01 </wgt>
<wgt id='1941'> +4.0105254E-01 </wgt>
<wgt id='1942'> +4.2445124E-01 </wgt>
<wgt id='1943'> +4.0325709E-01 </wgt>
<wgt id='1944'> +3.9594225E-01 </wgt>
<wgt id='1945'> +4.1059211E-01 </wgt>
<wgt id='1946'> +4.0245655E-01 </wgt>
<wgt id='1947'> +4.0182484E-01 </wgt>
<wgt id='1948'> +3.9951541E-01 </wgt>
<wgt id='1949'> +4.0901662E-01 </wgt>
<wgt id='1950'> +4.0250425E-01 </wgt>
<wgt id='1951'> +3.9930607E-01 </wgt>
<wgt id='1952'> +4.0072422E-01 </wgt>
<wgt id='1953'> +4.1440307E-01 </wgt>
<wgt id='1954'> +4.0913096E-01 </wgt>
<wgt id='1955'> +4.0659629E-01 </wgt>
<wgt id='1956'> +3.9179910E-01 </wgt>
<wgt id='1957'> +4.1106614E-01 </wgt>
<wgt id='1958'> +4.1390411E-01 </wgt>
<wgt id='1959'> +4.0479611E-01 </wgt>
<wgt id='1960'> +4.1899955E-01 </wgt>
<wgt id='1961'> +4.0226266E-01 </wgt>
<wgt id='1962'> +4.1014651E-01 </wgt>
<wgt id='1963'> +4.0656737E-01 </wgt>
<wgt id='1964'> +4.0658581E-01 </wgt>
<wgt id='1965'> +4.2019703E-01 </wgt>
<wgt id='1966'> +3.9485294E-01 </wgt>
<wgt id='1967'> +4.0395972E-01 </wgt>
<wgt id='1968'> +3.8945472E-01 </wgt>
<wgt id='1969'> +3.9958849E-01 </wgt>
<wgt id='1970'> +4.0642670E-01 </wgt>
<wgt id='1971'> +4.0136589E-01 </wgt>
<wgt id='1972'> +4.0909663E-01 </wgt>
<wgt id='1973'> +4.0833625E-01 </wgt>
<wgt id='1974'> +4.0648376E-01 </wgt>
<wgt id='1975'> +4.0261265E-01 </wgt>
<wgt id='1976'> +4.1616312E-01 </wgt>
<wgt id='1977'> +3.9785389E-01 </wgt>
<wgt id='1978'> +3.8799221E-01 </wgt>
<wgt id='1979'> +3.9893368E-01 </wgt>
<wgt id='1980'> +3.9819980E-01 </wgt>
<wgt id='1981'> +3.8896672E-01 </wgt>
<wgt id='1982'> +4.1796281E-01 </wgt>
<wgt id='1983'> +3.8834430E-01 </wgt>
<wgt id='1984'> +4.1548202E-01 </wgt>
<wgt id='1985'> +4.0647170E-01 </wgt>
<wgt id='1986'> +4.2971897E-01 </wgt>
<wgt id='1987'> +4.0372078E-01 </wgt>
<wgt id='1988'> +4.0857483E-01 </wgt>
<wgt id='1989'> +3.9418678E-01 </wgt>
<wgt id='1990'> +4.1941882E-01 </wgt>
<wgt id='1991'> +4.0400952E-01 </wgt>
<wgt id='1992'> +4.1229898E-01 </wgt>
<wgt id='1993'> +4.1473564E-01 </wgt>
<wgt id='1994'> +3.8883522E-01 </wgt>
<wgt id='1995'> +3.9559628E-01 </wgt>
<wgt id='1996'> +4.0373721E-01 </wgt>
<wgt id='1997'> +4.1132803E-01 </wgt>
<wgt id='1998'> +4.0933498E-01 </wgt>
<wgt id='1999'> +4.0195121E-01 </wgt>
<wgt id='2000'> +4.0345965E-01 </wgt>
<wgt id='2001'> +3.9817412E-01 </wgt>
<wgt id='2002'> +4.0316101E-01 </wgt>
<wgt id='2003'> +4.1411119E-01 </wgt>
<wgt id='2004'> +3.8617412E-01 </wgt>
<wgt id='2005'> +3.9966730E-01 </wgt>
<wgt id='2006'> +3.9547979E-01 </wgt>
<wgt id='2007'> +4.0370598E-01 </wgt>
<wgt id='2008'> +4.0777525E-01 </wgt>
<wgt id='2009'> +3.9532004E-01 </wgt>
<wgt id='2010'> +4.0802304E-01 </wgt>
<wgt id='2011'> +4.1267949E-01 </wgt>
<wgt id='2012'> +4.0718860E-01 </wgt>
<wgt id='2013'> +4.1342746E-01 </wgt>
<wgt id='2014'> +3.7617482E-01 </wgt>
<wgt id='2015'> +4.0966286E-01 </wgt>
<wgt id='2016'> +4.0496116E-01 </wgt>
<wgt id='2017'> +4.1552361E-01 </wgt>
<wgt id='2018'> +4.0757537E-01 </wgt>
<wgt id='2019'> +3.9469302E-01 </wgt>
<wgt id='2020'> +4.0582386E-01 </wgt>
<wgt id='2021'> +4.0500397E-01 </wgt>
<wgt id='2022'> +3.9856602E-01 </wgt>
</rwgt>
</event>
<event>
13      1 +3.9556008E-01 1.30336600e+02 7.81860800e-03 1.07397500e-01
       21 -1    0    0  502  503 +0.0000000000e+00 +0.0000000000e+00 +1.0196240065e+03 1.0196240065e+03 0.0000000000e+00 0.0000e+00 -1.0000e+00
        2 -1    0    0  501    0 +0.0000000000e+00 +0.0000000000e+00 -1.7023378675e+03 1.7023378675e+03 2.5500000000e-03 0.0000e+00 -1.0000e+00
  8000001  2    1    2  502    0 -7.1531761144e+01 -1.2420768095e+02 +5.8866298987e+02 8.5268259454e+02 5.9999929212e+02 0.0000e+00 0.0000e+00
        1  1    1    2  501    0 +4.9823574553e+01 +1.0752163264e+02 -1.5674413964e+03 1.5719146991e+03 5.0400000000e-03 0.0000e+00 -1.0000e+00
       -5  1    1    2    0  503 +2.1708186591e+01 +1.6686048300e+01 +2.9606454558e+02 2.9736458031e+02 4.6700000000e+00 0.0000e+00 1.0000e+00
        6  2    3    3  502    0 +1.4821359464e+02 +1.3307222835e+02 +2.9570613636e+02 3.9583090605e+02 1.7194330318e+02 0.0000e+00 0.0000e+00
        5  1    6    6  502    0 +8.1115994918e+01 -1.1387626456e+01 +1.0974349079e+02 1.3702162362e+02 4.6700000000e+00 0.0000e+00 -1.0000e+00
       24  2    6    6    0    0 +6.7097599726e+01 +1.4445985481e+02 +1.8596264557e+02 2.5880928243e+02 8.3841526611e+01 0.0000e+00 0.0000e+00
        2  1    8    8  504    0 +6.8623357851e+01 +1.4190181751e+02 +1.3435237906e+02 2.0711314014e+02 2.5500000000e-03 0.0000e+00 -1.0000e+00
       -1  1    8    8    0  504 -1.5257581252e+00 +2.5580373035e+00 +5.1610266513e+01 5.1696142290e+01 5.0400000000e-03 0.0000e+00 1.0000e+00
       23  2    3    3    0    0 -2.1974535579e+02 -2.5727990930e+02 +2.9295685351e+02 4.5685168849e+02 9.1699368242e+01 0.0000e+00 0.0000e+00
        3  1   11   11  505    0 -1.0109333419e+01 -2.2862866011e+01 -2.7876957208e+00 2.5153343969e+01 1.0100000000e-01 0.0000e+00 -1.0000e+00
       -3  1   11   11    0  505 -2.0963602237e+02 -2.3441704329e+02 +2.9574454924e+02 4.3169834452e+02 1.0100000000e-01 0.0000e+00 1.0000e+00
<mgrwt>
<rscale>  1 0.12431912e+03</rscale>
<asrwt>0</asrwt>
<pdfrwt beam="1">  1       21 0.15686523e+00 0.13033659e+03</pdfrwt>
<pdfrwt beam="2">  1        2 0.26189813e+00 0.11857947e+03</pdfrwt>
<totfact> 0.39548826e+01</totfact>
</mgrwt>
<rwgt>
<wgt id='1001'> +3.9556008E-01 </wgt>
<wgt id='1002'> +2.2301576E-01 </wgt>
<wgt id='1003'> +2.2297338E-01 </wgt>
<wgt id='1004'> +2.7526016E-01 </wgt>
<wgt id='1005'> +1.5705636E-01 </wgt>
<wgt id='1006'> +3.5828665E-01 </wgt>
<wgt id='1007'> +2.0622964E-01 </wgt>
<wgt id='1008'> +2.0619170E-01 </wgt>
<wgt id='1009'> +2.5277563E-01 </wgt>
<wgt id='1010'> +1.4673422E-01 </wgt>
<wgt id='1011'> +4.4180131E-01 </wgt>
<wgt id='1012'> +2.4285487E-01 </wgt>
<wgt id='1013'> +2.4280698E-01 </wgt>
<wgt id='1014'> +3.0226765E-01 </wgt>
<wgt id='1015'> +1.6897515E-01 </wgt>
<wgt id='1016'> +3.4328980E-01 </wgt>
<wgt id='1017'> +1.9849496E-01 </wgt>
<wgt id='1018'> +1.9845854E-01 </wgt>
<wgt id='1019'> +2.4280698E-01 </wgt>
<wgt id='1020'> +1.4165717E-01 </wgt>
<wgt id='1021'> +3.1094178E-01 </wgt>
<wgt id='1022'> +1.8355449E-01 </wgt>
<wgt id='1023'> +1.8352192E-01 </wgt>
<wgt id='1024'> +2.2297338E-01 </wgt>
<wgt id='1025'> +1.3234711E-01 </wgt>
<wgt id='1026'> +3.8342061E-01 </wgt>
<wgt id='1027'> +2.1615274E-01 </wgt>
<wgt id='1028'> +2.1611153E-01 </wgt>
<wgt id='1029'> +2.6663029E-01 </wgt>
<wgt id='1030'> +1.5240734E-01 </wgt>
<wgt id='1031'> +4.6185229E-01 </wgt>
<wgt id='1032'> +2.5282621E-01 </wgt>
<wgt id='1033'> +2.5277563E-01 </wgt>
<wgt id='1034'> +3.1521623E-01 </wgt>
<wgt id='1035'> +1.7530482E-01 </wgt>
<wgt id='1036'> +4.1833216E-01 </wgt>
<wgt id='1037'> +2.3379630E-01 </wgt>
<wgt id='1038'> +2.3375094E-01 </wgt>
<wgt id='1039'> +2.8946791E-01 </wgt>
<wgt id='1040'> +1.6378334E-01 </wgt>
<wgt id='1041'> +5.1584313E-01 </wgt>
<wgt id='1042'> +2.7531721E-01 </wgt>
<wgt id='1043'> +2.7526016E-01 </wgt>
<wgt id='1044'> +3.4614406E-01 </wgt>
<wgt id='1045'> +1.8860845E-01 </wgt>
<wgt id='1046'> +3.9556008E-01 </wgt>
<wgt id='1047'> +3.9556008E-01 </wgt>
<wgt id='1048'> +3.9556008E-01 </wgt>
<wgt id='1049'> +3.9458051E-01 </wgt>
<wgt id='1050'> +3.9553233E-01 </wgt>
<wgt id='1051'> +3.9578664E-01 </wgt>
<wgt id='1052'> +3.9567763E-01 </wgt>
<wgt id='1053'> +3.9524233E-01 </wgt>
<wgt id='1054'> +3.9541542E-01 </wgt>
<wgt id='1055'> +3.9436662E-01 </wgt>
<wgt id='1056'> +3.9398119E-01 </wgt>
<wgt id='1057'> +3.9636805E-01 </wgt>
<wgt id='1058'> +3.9530425E-01 </wgt>
<wgt id='1059'> +3.9685044E-01 </wgt>
<wgt id='1060'> +3.9582316E-01 </wgt>
<wgt id='1061'> +3.9584381E-01 </wgt>
<wgt id='1062'> +3.9617312E-01 </wgt>
<wgt id='1063'> +3.9524589E-01 </wgt>
<wgt id='1064'> +3.9595207E-01 </wgt>
<wgt id='1065'> +3.9663926E-01 </wgt>
<wgt id='1066'> +3.9264539E-01 </wgt>
<wgt id='1067'> +3.9313215E-01 </wgt>
<wgt id='1068'> +3.9381177E-01 </wgt>
<wgt id='1069'> +3.9551581E-01 </wgt>
<wgt id='1070'> +3.9585220E-01 </wgt>
<wgt id='1071'> +3.9544018E-01 </wgt>
<wgt id='1072'> +3.9393403E-01 </wgt>
<wgt id='1073'> +3.9674157E-01 </wgt>
<wgt id='1074'> +3.9675063E-01 </wgt>
<wgt id='1075'> +3.9661509E-01 </wgt>
<wgt id='1076'> +3.9432456E-01 </wgt>
<wgt id='1077'> +3.9700363E-01 </wgt>
<wgt id='1078'> +3.9586775E-01 </wgt>
<wgt id='1079'> +3.9679254E-01 </wgt>
<wgt id='1080'> +3.9619208E-01 </wgt>
<wgt id='1081'> +3.9572268E-01 </wgt>
<wgt id='1082'> +3.9517972E-01 </wgt>
<wgt id='1083'> +3.9539864E-01 </wgt>
<wgt id='1084'> +3.9463748E-01 </wgt>
<wgt id='1085'> +3.9552915E-01 </wgt>
<wgt id='1086'> +3.9442385E-01 </wgt>
<wgt id='1087'> +3.9510440E-01 </wgt>
<wgt id='1088'> +3.9491990E-01 </wgt>
<wgt id='1089'> +3.9473231E-01 </wgt>
<wgt id='1090'> +3.9600854E-01 </wgt>
<wgt id='1091'> +3.9502000E-01 </wgt>
<wgt id='1092'> +3.9513979E-01 </wgt>
<wgt id='1093'> +3.9549869E-01 </wgt>
<wgt id='1094'> +3.9524828E-01 </wgt>
<wgt id='1095'> +3.9498452E-01 </wgt>
<wgt id='1096'> +3.9494258E-01 </wgt>
<wgt id='1097'> +3.9520520E-01 </wgt>
<wgt id='1098'> +3.9513227E-01 </wgt>
<wgt id='1099'> +3.9521921E-01 </wgt>
<wgt id='1100'> +3.9630485E-01 </wgt>
<wgt id='1101'> +3.9526426E-01 </wgt>
<wgt id='1102'> +3.9522949E-01 </wgt>
<wgt id='1103'> +3.9568045E-01 </wgt>
<wgt id='1104'> +3.9538598E-01 </wgt>
<wgt id='1105'> +3.9576180E-01 </wgt>
<wgt id='1106'> +3.9619287E-01 </wgt>
<wgt id='1107'> +3.9507431E-01 </wgt>
<wgt id='1108'> +3.9565392E-01 </wgt>
<wgt id='1109'> +3.9571686E-01 </wgt>
<wgt id='1110'> +3.9577904E-01 </wgt>
<wgt id='1111'> +3.9516253E-01 </wgt>
<wgt id='1112'> +3.9586685E-01 </wgt>
<wgt id='1113'> +3.9536521E-01 </wgt>
<wgt id='1114'> +3.9431192E-01 </wgt>
<wgt id='1115'> +3.9566388E-01 </wgt>
<wgt id='1116'> +3.9606012E-01 </wgt>
<wgt id='1117'> +3.9586088E-01 </wgt>
<wgt id='1118'> +3.9565724E-01 </wgt>
<wgt id='1119'> +3.9575481E-01 </wgt>
<wgt id='1120'> +3.9505259E-01 </wgt>
<wgt id='1121'> +3.9614429E-01 </wgt>
<wgt id='1122'> +3.9560601E-01 </wgt>
<wgt id='1123'> +3.9571648E-01 </wgt>
<wgt id='1124'> +3.9530224E-01 </wgt>
<wgt id='1125'> +3.9547349E-01 </wgt>
<wgt id='1126'> +3.9572108E-01 </wgt>
<wgt id='1127'> +3.9557272E-01 </wgt>
<wgt id='1128'> +3.9557307E-01 </wgt>
<wgt id='1129'> +3.9541469E-01 </wgt>
<wgt id='1130'> +3.9575816E-01 </wgt>
<wgt id='1131'> +3.9600589E-01 </wgt>
<wgt id='1132'> +3.9540266E-01 </wgt>
<wgt id='1133'> +3.9575600E-01 </wgt>
<wgt id='1134'> +3.9542433E-01 </wgt>
<wgt id='1135'> +3.9577324E-01 </wgt>
<wgt id='1136'> +3.9571913E-01 </wgt>
<wgt id='1137'> +3.9539792E-01 </wgt>
<wgt id='1138'> +3.9582407E-01 </wgt>
<wgt id='1139'> +3.9563281E-01 </wgt>
<wgt id='1140'> +3.9601358E-01 </wgt>
<wgt id='1141'> +3.9538070E-01 </wgt>
<wgt id='1142'> +3.9573203E-01 </wgt>
<wgt id='1143'> +3.9587096E-01 </wgt>
<wgt id='1144'> +3.9535237E-01 </wgt>
<wgt id='1145'> +3.9554555E-01 </wgt>
<wgt id='1146'> +3.9560284E-01 </wgt>
<wgt id='1147'> +3.9576768E-01 </wgt>
<wgt id='1148'> +3.9556008E-01 </wgt>
<wgt id='1149'> +3.5882260E-01 </wgt>
<wgt id='1150'> +3.6900893E-01 </wgt>
<wgt id='1151'> +3.5628137E-01 </wgt>
<wgt id='1152'> +3.6214779E-01 </wgt>
<wgt id='1153'> +3.5510498E-01 </wgt>
<wgt id='1154'> +3.6224862E-01 </wgt>
<wgt id='1155'> +3.6029271E-01 </wgt>
<wgt id='1156'> +3.5343760E-01 </wgt>
<wgt id='1157'> +3.5526208E-01 </wgt>
<wgt id='1158'> +3.5531660E-01 </wgt>
<wgt id='1159'> +3.5418028E-01 </wgt>
<wgt id='1160'> +3.5672814E-01 </wgt>
<wgt id='1161'> +3.5999293E-01 </wgt>
<wgt id='1162'> +3.5206147E-01 </wgt>
<wgt id='1163'> +3.6427600E-01 </wgt>
<wgt id='1164'> +3.5397341E-01 </wgt>
<wgt id='1165'> +3.5188722E-01 </wgt>
<wgt id='1166'> +3.5836683E-01 </wgt>
<wgt id='1167'> +3.5502419E-01 </wgt>
<wgt id='1168'> +3.5428492E-01 </wgt>
<wgt id='1169'> +3.5044821E-01 </wgt>
<wgt id='1170'> +3.6523525E-01 </wgt>
<wgt id='1171'> +3.5629949E-01 </wgt>
<wgt id='1172'> +3.5994843E-01 </wgt>
<wgt id='1173'> +3.5879991E-01 </wgt>
<wgt id='1174'> +3.6146806E-01 </wgt>
<wgt id='1175'> +3.5673073E-01 </wgt>
<wgt id='1176'> +3.5505820E-01 </wgt>
<wgt id='1177'> +3.5565022E-01 </wgt>
<wgt id='1178'> +3.5663020E-01 </wgt>
<wgt id='1179'> +3.4717052E-01 </wgt>
<wgt id='1180'> +3.7453552E-01 </wgt>
<wgt id='1181'> +3.5316908E-01 </wgt>
<wgt id='1182'> +3.6036605E-01 </wgt>
<wgt id='1183'> +3.6205244E-01 </wgt>
<wgt id='1184'> +3.6230340E-01 </wgt>
<wgt id='1185'> +3.6662926E-01 </wgt>
<wgt id='1186'> +3.5233358E-01 </wgt>
<wgt id='1187'> +3.5949389E-01 </wgt>
<wgt id='1188'> +3.5302005E-01 </wgt>
<wgt id='1189'> +3.5997965E-01 </wgt>
<wgt id='1190'> +3.5666491E-01 </wgt>
<wgt id='1191'> +3.6265823E-01 </wgt>
<wgt id='1192'> +3.6055032E-01 </wgt>
<wgt id='1193'> +3.6753494E-01 </wgt>
<wgt id='1194'> +3.5740712E-01 </wgt>
<wgt id='1195'> +3.5487385E-01 </wgt>
<wgt id='1196'> +3.6487693E-01 </wgt>
<wgt id='1197'> +3.6789806E-01 </wgt>
<wgt id='1198'> +3.6164435E-01 </wgt>
<wgt id='1199'> +3.6438834E-01 </wgt>
<wgt id='1200'> +3.6125778E-01 </wgt>
<wgt id='1201'> +3.6137183E-01 </wgt>
<wgt id='1202'> +3.6421435E-01 </wgt>
<wgt id='1203'> +3.6125702E-01 </wgt>
<wgt id='1204'> +3.6683697E-01 </wgt>
<wgt id='1205'> +3.5378716E-01 </wgt>
<wgt id='1206'> +3.5773658E-01 </wgt>
<wgt id='1207'> +3.7077687E-01 </wgt>
<wgt id='1208'> +3.4814869E-01 </wgt>
<wgt id='1209'> +3.6494246E-01 </wgt>
<wgt id='1210'> +3.5319072E-01 </wgt>
<wgt id='1211'> +3.6300015E-01 </wgt>
<wgt id='1212'> +3.5995431E-01 </wgt>
<wgt id='1213'> +3.7282685E-01 </wgt>
<wgt id='1214'> +3.5660725E-01 </wgt>
<wgt id='1215'> +3.5751372E-01 </wgt>
<wgt id='1216'> +3.6281186E-01 </wgt>
<wgt id='1217'> +3.4690528E-01 </wgt>
<wgt id='1218'> +3.5670551E-01 </wgt>
<wgt id='1219'> +3.6764643E-01 </wgt>
<wgt id='1220'> +3.5767603E-01 </wgt>
<wgt id='1221'> +3.4638241E-01 </wgt>
<wgt id='1222'> +3.5547320E-01 </wgt>
<wgt id='1223'> +3.4735526E-01 </wgt>
<wgt id='1224'> +3.4989004E-01 </wgt>
<wgt id='1225'> +3.6731138E-01 </wgt>
<wgt id='1226'> +3.5760086E-01 </wgt>
<wgt id='1227'> +3.6490518E-01 </wgt>
<wgt id='1228'> +3.5860763E-01 </wgt>
<wgt id='1229'> +3.6223269E-01 </wgt>
<wgt id='1230'> +3.6897762E-01 </wgt>
<wgt id='1231'> +3.5188722E-01 </wgt>
<wgt id='1232'> +3.5469415E-01 </wgt>
<wgt id='1233'> +3.5292143E-01 </wgt>
<wgt id='1234'> +3.6020854E-01 </wgt>
<wgt id='1235'> +3.6534405E-01 </wgt>
<wgt id='1236'> +3.5819834E-01 </wgt>
<wgt id='1237'> +3.5403064E-01 </wgt>
<wgt id='1238'> +3.4589172E-01 </wgt>
<wgt id='1239'> +3.6549055E-01 </wgt>
<wgt id='1240'> +3.6491386E-01 </wgt>
<wgt id='1241'> +3.6183176E-01 </wgt>
<wgt id='1242'> +3.5613613E-01 </wgt>
<wgt id='1243'> +3.5922536E-01 </wgt>
<wgt id='1244'> +3.5369247E-01 </wgt>
<wgt id='1245'> +3.6478906E-01 </wgt>
<wgt id='1246'> +3.7153798E-01 </wgt>
<wgt id='1247'> +3.5079101E-01 </wgt>
<wgt id='1248'> +3.5100300E-01 </wgt>
<wgt id='1249'> +3.5549816E-01 </wgt>
<wgt id='1250'> +4.0739573E-01 </wgt>
<wgt id='1251'> +3.9837455E-01 </wgt>
<wgt id='1252'> +4.2436494E-01 </wgt>
<wgt id='1253'> +4.2161673E-01 </wgt>
<wgt id='1254'> +4.8263302E-01 </wgt>
<wgt id='1255'> +4.4058161E-01 </wgt>
<wgt id='1256'> +4.4419449E-01 </wgt>
<wgt id='1257'> +4.3849280E-01 </wgt>
<wgt id='1258'> +4.4008908E-01 </wgt>
<wgt id='1259'> +4.4081885E-01 </wgt>
<wgt id='1260'> +4.4132029E-01 </wgt>
<wgt id='1261'> +4.3959315E-01 </wgt>
<wgt id='1262'> +4.4109784E-01 </wgt>
<wgt id='1263'> +4.4024312E-01 </wgt>
<wgt id='1264'> +4.4046907E-01 </wgt>
<wgt id='1265'> +4.4066534E-01 </wgt>
<wgt id='1266'> +4.4103618E-01 </wgt>
<wgt id='1267'> +4.4013157E-01 </wgt>
<wgt id='1268'> +4.4547774E-01 </wgt>
<wgt id='1269'> +4.3570917E-01 </wgt>
<wgt id='1270'> +4.3575330E-01 </wgt>
<wgt id='1271'> +4.4591796E-01 </wgt>
<wgt id='1272'> +4.3925764E-01 </wgt>
<wgt id='1273'> +4.4160469E-01 </wgt>
<wgt id='1274'> +4.4172276E-01 </wgt>
<wgt id='1275'> +4.3918448E-01 </wgt>
<wgt id='1276'> +4.4644223E-01 </wgt>
<wgt id='1277'> +4.3470365E-01 </wgt>
<wgt id='1278'> +4.3757413E-01 </wgt>
<wgt id='1279'> +4.4309537E-01 </wgt>
<wgt id='1280'> +4.4071907E-01 </wgt>
<wgt id='1281'> +4.4035219E-01 </wgt>
<wgt id='1282'> +4.3793414E-01 </wgt>
<wgt id='1283'> +4.4266814E-01 </wgt>
<wgt id='1284'> +4.4083793E-01 </wgt>
<wgt id='1285'> +4.4058000E-01 </wgt>
<wgt id='1286'> +4.4314523E-01 </wgt>
<wgt id='1287'> +4.4043223E-01 </wgt>
<wgt id='1288'> +4.4198803E-01 </wgt>
<wgt id='1289'> +4.3984805E-01 </wgt>
<wgt id='1290'> +4.4136080E-01 </wgt>
<wgt id='1291'> +4.4031267E-01 </wgt>
<wgt id='1292'> +4.4402644E-01 </wgt>
<wgt id='1293'> +4.3679193E-01 </wgt>
<wgt id='1294'> +4.4146341E-01 </wgt>
<wgt id='1295'> +4.3829534E-01 </wgt>
<wgt id='1296'> +4.1899183E-01 </wgt>
<wgt id='1297'> +4.2019240E-01 </wgt>
<wgt id='1298'> +4.1801832E-01 </wgt>
<wgt id='1299'> +4.1706895E-01 </wgt>
<wgt id='1300'> +4.2112368E-01 </wgt>
<wgt id='1301'> +4.1781302E-01 </wgt>
<wgt id='1302'> +4.2073117E-01 </wgt>
<wgt id='1303'> +4.1882760E-01 </wgt>
<wgt id='1304'> +4.1908756E-01 </wgt>
<wgt id='1305'> +4.1939014E-01 </wgt>
<wgt id='1306'> +4.1842329E-01 </wgt>
<wgt id='1307'> +4.2096152E-01 </wgt>
<wgt id='1308'> +4.1775765E-01 </wgt>
<wgt id='1309'> +4.1917360E-01 </wgt>
<wgt id='1310'> +4.1875074E-01 </wgt>
<wgt id='1311'> +4.2269500E-01 </wgt>
<wgt id='1312'> +4.1763612E-01 </wgt>
<wgt id='1313'> +4.1363940E-01 </wgt>
<wgt id='1314'> +4.2573944E-01 </wgt>
<wgt id='1315'> +4.1979313E-01 </wgt>
<wgt id='1316'> +4.1824552E-01 </wgt>
<wgt id='1317'> +4.2323456E-01 </wgt>
<wgt id='1318'> +4.1212181E-01 </wgt>
<wgt id='1319'> +4.1435470E-01 </wgt>
<wgt id='1320'> +4.2209804E-01 </wgt>
<wgt id='1321'> +4.1487879E-01 </wgt>
<wgt id='1322'> +4.2107155E-01 </wgt>
<wgt id='1323'> +4.1803652E-01 </wgt>
<wgt id='1324'> +4.2017554E-01 </wgt>
<wgt id='1325'> +4.1875284E-01 </wgt>
<wgt id='1326'> +4.1979575E-01 </wgt>
<wgt id='1327'> +4.1809346E-01 </wgt>
<wgt id='1328'> +4.1938073E-01 </wgt>
<wgt id='1329'> +4.1937505E-01 </wgt>
<wgt id='1330'> +4.1875333E-01 </wgt>
<wgt id='1331'> +4.2221809E-01 </wgt>
<wgt id='1332'> +4.1785615E-01 </wgt>
<wgt id='1333'> +4.1736672E-01 </wgt>
<wgt id='1334'> +4.2436710E-01 </wgt>
<wgt id='1335'> +4.2139346E-01 </wgt>
<wgt id='1336'> +4.1840614E-01 </wgt>
<wgt id='1337'> +4.1899183E-01 </wgt>
<wgt id='1338'> +4.2000766E-01 </wgt>
<wgt id='1339'> +4.1959613E-01 </wgt>
<wgt id='1340'> +4.1920062E-01 </wgt>
<wgt id='1341'> +4.1855086E-01 </wgt>
<wgt id='1342'> +4.1826783E-01 </wgt>
<wgt id='1343'> +4.1799682E-01 </wgt>
<wgt id='1344'> +4.0825910E-01 </wgt>
<wgt id='1345'> +4.1018594E-01 </wgt>
<wgt id='1346'> +4.0634279E-01 </wgt>
<wgt id='1347'> +4.1166479E-01 </wgt>
<wgt id='1348'> +4.0575474E-01 </wgt>
<wgt id='1349'> +4.0768406E-01 </wgt>
<wgt id='1350'> +4.0873650E-01 </wgt>
<wgt id='1351'> +4.0826480E-01 </wgt>
<wgt id='1352'> +4.0824698E-01 </wgt>
<wgt id='1353'> +4.0951500E-01 </wgt>
<wgt id='1354'> +4.0737205E-01 </wgt>
<wgt id='1355'> +4.0783411E-01 </wgt>
<wgt id='1356'> +4.0858771E-01 </wgt>
<wgt id='1357'> +4.0926491E-01 </wgt>
<wgt id='1358'> +4.0764288E-01 </wgt>
<wgt id='1359'> +4.0654833E-01 </wgt>
<wgt id='1360'> +4.1252198E-01 </wgt>
<wgt id='1361'> +4.0060263E-01 </wgt>
<wgt id='1362'> +4.1508030E-01 </wgt>
<wgt id='1363'> +4.0683238E-01 </wgt>
<wgt id='1364'> +4.1004771E-01 </wgt>
<wgt id='1365'> +4.0605944E-01 </wgt>
<wgt id='1366'> +4.0928524E-01 </wgt>
<wgt id='1367'> +4.0419653E-01 </wgt>
<wgt id='1368'> +4.1031930E-01 </wgt>
<wgt id='1369'> +4.1140043E-01 </wgt>
<wgt id='1370'> +4.0571493E-01 </wgt>
<wgt id='1371'> +4.0780231E-01 </wgt>
<wgt id='1372'> +4.0902821E-01 </wgt>
<wgt id='1373'> +4.0842085E-01 </wgt>
<wgt id='1374'> +4.0951547E-01 </wgt>
<wgt id='1375'> +4.0749574E-01 </wgt>
<wgt id='1376'> +4.0861048E-01 </wgt>
<wgt id='1377'> +4.0763184E-01 </wgt>
<wgt id='1378'> +4.0940176E-01 </wgt>
<wgt id='1379'> +4.0722494E-01 </wgt>
<wgt id='1380'> +4.1058372E-01 </wgt>
<wgt id='1381'> +4.0850007E-01 </wgt>
<wgt id='1382'> +4.1104552E-01 </wgt>
<wgt id='1383'> +4.0768980E-01 </wgt>
<wgt id='1384'> +4.1231028E-01 </wgt>
<wgt id='1385'> +4.0825910E-01 </wgt>
<wgt id='1386'> +4.0916868E-01 </wgt>
<wgt id='1387'> +4.0878628E-01 </wgt>
<wgt id='1388'> +4.0842540E-01 </wgt>
<wgt id='1389'> +4.0784597E-01 </wgt>
<wgt id='1390'> +4.0754651E-01 </wgt>
<wgt id='1391'> +4.0730807E-01 </wgt>
<wgt id='1392'> +4.2838860E-01 </wgt>
<wgt id='1393'> +4.2862990E-01 </wgt>
<wgt id='1394'> +4.2812214E-01 </wgt>
<wgt id='1395'> +4.2863823E-01 </wgt>
<wgt id='1396'> +4.2820465E-01 </wgt>
<wgt id='1397'> +4.3046439E-01 </wgt>
<wgt id='1398'> +4.2637855E-01 </wgt>
<wgt id='1399'> +4.3071063E-01 </wgt>
<wgt id='1400'> +4.2554064E-01 </wgt>
<wgt id='1401'> +4.2684072E-01 </wgt>
<wgt id='1402'> +4.3028364E-01 </wgt>
<wgt id='1403'> +4.2782414E-01 </wgt>
<wgt id='1404'> +4.2951773E-01 </wgt>
<wgt id='1405'> +4.2791075E-01 </wgt>
<wgt id='1406'> +4.2905214E-01 </wgt>
<wgt id='1407'> +4.2843546E-01 </wgt>
<wgt id='1408'> +4.2835808E-01 </wgt>
<wgt id='1409'> +4.2987365E-01 </wgt>
<wgt id='1410'> +4.2667198E-01 </wgt>
<wgt id='1411'> +4.2743632E-01 </wgt>
<wgt id='1412'> +4.2911502E-01 </wgt>
<wgt id='1413'> +4.2996968E-01 </wgt>
<wgt id='1414'> +4.2670101E-01 </wgt>
<wgt id='1415'> +4.2898239E-01 </wgt>
<wgt id='1416'> +4.2758246E-01 </wgt>
<wgt id='1417'> +4.2287086E-01 </wgt>
<wgt id='1418'> +4.3520060E-01 </wgt>
<wgt id='1419'> +4.2786229E-01 </wgt>
<wgt id='1420'> +4.2831244E-01 </wgt>
<wgt id='1421'> +4.2467978E-01 </wgt>
<wgt id='1422'> +4.3284586E-01 </wgt>
<wgt id='1423'> +4.2103302E-01 </wgt>
<wgt id='1424'> +4.3392344E-01 </wgt>
<wgt id='1425'> +4.2891497E-01 </wgt>
<wgt id='1426'> +4.2768449E-01 </wgt>
<wgt id='1427'> +4.2889266E-01 </wgt>
<wgt id='1428'> +4.2496080E-01 </wgt>
<wgt id='1429'> +4.2766474E-01 </wgt>
<wgt id='1430'> +4.2888404E-01 </wgt>
<wgt id='1431'> +4.2687931E-01 </wgt>
<wgt id='1432'> +4.2972934E-01 </wgt>
<wgt id='1433'> +4.2399028E-01 </wgt>
<wgt id='1434'> +4.3319142E-01 </wgt>
<wgt id='1435'> +4.2738337E-01 </wgt>
<wgt id='1436'> +4.3013231E-01 </wgt>
<wgt id='1437'> +4.2765650E-01 </wgt>
<wgt id='1438'> +4.3022251E-01 </wgt>
<wgt id='1439'> +4.2810437E-01 </wgt>
<wgt id='1440'> +4.3178731E-01 </wgt>
<wgt id='1441'> +4.2793903E-01 </wgt>
<wgt id='1442'> +4.2960839E-01 </wgt>
<wgt id='1443'> +4.2378941E-01 </wgt>
<wgt id='1444'> +4.2405194E-01 </wgt>
<wgt id='1445'> +4.2349933E-01 </wgt>
<wgt id='1446'> +4.2406141E-01 </wgt>
<wgt id='1447'> +4.2359763E-01 </wgt>
<wgt id='1448'> +4.2596967E-01 </wgt>
<wgt id='1449'> +4.2175859E-01 </wgt>
<wgt id='1450'> +4.2598400E-01 </wgt>
<wgt id='1451'> +4.2135642E-01 </wgt>
<wgt id='1452'> +4.2228729E-01 </wgt>
<wgt id='1453'> +4.2523600E-01 </wgt>
<wgt id='1454'> +4.2314704E-01 </wgt>
<wgt id='1455'> +4.2517929E-01 </wgt>
<wgt id='1456'> +4.2327802E-01 </wgt>
<wgt id='1457'> +4.2469416E-01 </wgt>
<wgt id='1458'> +4.2394942E-01 </wgt>
<wgt id='1459'> +4.2369872E-01 </wgt>
<wgt id='1460'> +4.2513866E-01 </wgt>
<wgt id='1461'> +4.2215710E-01 </wgt>
<wgt id='1462'> +4.2255043E-01 </wgt>
<wgt id='1463'> +4.2485458E-01 </wgt>
<wgt id='1464'> +4.2530240E-01 </wgt>
<wgt id='1465'> +4.2178941E-01 </wgt>
<wgt id='1466'> +4.2519138E-01 </wgt>
<wgt id='1467'> +4.2259892E-01 </wgt>
<wgt id='1468'> +4.3058120E-01 </wgt>
<wgt id='1469'> +4.1715088E-01 </wgt>
<wgt id='1470'> +4.2352811E-01 </wgt>
<wgt id='1471'> +4.2361609E-01 </wgt>
<wgt id='1472'> +4.2091763E-01 </wgt>
<wgt id='1473'> +4.2726300E-01 </wgt>
<wgt id='1474'> +4.1855546E-01 </wgt>
<wgt id='1475'> +4.2961666E-01 </wgt>
<wgt id='1476'> +4.2546908E-01 </wgt>
<wgt id='1477'> +4.2214269E-01 </wgt>
<wgt id='1478'> +4.2430256E-01 </wgt>
<wgt id='1479'> +4.2027103E-01 </wgt>
<wgt id='1480'> +4.2340812E-01 </wgt>
<wgt id='1481'> +4.2389613E-01 </wgt>
<wgt id='1482'> +4.2239549E-01 </wgt>
<wgt id='1483'> +4.2523600E-01 </wgt>
<wgt id='1484'> +4.1920371E-01 </wgt>
<wgt id='1485'> +4.2868404E-01 </wgt>
<wgt id='1486'> +4.2287776E-01 </wgt>
<wgt id='1487'> +4.2533158E-01 </wgt>
<wgt id='1488'> +4.2284756E-01 </wgt>
<wgt id='1489'> +4.2603832E-01 </wgt>
<wgt id='1490'> +4.2360800E-01 </wgt>
<wgt id='1491'> +4.2783730E-01 </wgt>
<wgt id='1492'> +4.2297780E-01 </wgt>
<wgt id='1493'> +4.2557398E-01 </wgt>
<wgt id='1494'> +4.0874842E-01 </wgt>
<wgt id='1495'> +4.0271508E-01 </wgt>
<wgt id='1496'> +4.0471870E-01 </wgt>
<wgt id='1497'> +4.0681283E-01 </wgt>
<wgt id='1498'> +4.1160622E-01 </wgt>
<wgt id='1499'> +4.0905361E-01 </wgt>
<wgt id='1500'> +4.1527745E-01 </wgt>
<wgt id='1501'> +4.1416367E-01 </wgt>
<wgt id='1502'> +4.1301602E-01 </wgt>
<wgt id='1503'> +4.1175088E-01 </wgt>
<wgt id='1504'> +4.1043807E-01 </wgt>
<wgt id='1505'> +4.0767751E-01 </wgt>
<wgt id='1506'> +4.0631760E-01 </wgt>
<wgt id='1507'> +4.0493608E-01 </wgt>
<wgt id='1508'> +4.0905361E-01 </wgt>
<wgt id='1509'> +4.0979526E-01 </wgt>
<wgt id='1510'> +4.0938598E-01 </wgt>
<wgt id='1511'> +4.0880064E-01 </wgt>
<wgt id='1512'> +4.0861581E-01 </wgt>
<wgt id='1513'> +4.1186295E-01 </wgt>
<wgt id='1514'> +4.1189153E-01 </wgt>
<wgt id='1515'> +4.1184300E-01 </wgt>
<wgt id='1516'> +4.1277024E-01 </wgt>
<wgt id='1517'> +4.1096837E-01 </wgt>
<wgt id='1518'> +4.1262893E-01 </wgt>
<wgt id='1519'> +4.1155895E-01 </wgt>
<wgt id='1520'> +4.1533307E-01 </wgt>
<wgt id='1521'> +4.0841573E-01 </wgt>
<wgt id='1522'> +4.1113854E-01 </wgt>
<wgt id='1523'> +4.1255795E-01 </wgt>
<wgt id='1524'> +4.1475725E-01 </wgt>
<wgt id='1525'> +4.1061716E-01 </wgt>
<wgt id='1526'> +4.1183657E-01 </wgt>
<wgt id='1527'> +4.1190632E-01 </wgt>
<wgt id='1528'> +4.1150563E-01 </wgt>
<wgt id='1529'> +4.1225899E-01 </wgt>
<wgt id='1530'> +4.1296042E-01 </wgt>
<wgt id='1531'> +4.1124324E-01 </wgt>
<wgt id='1532'> +4.1298515E-01 </wgt>
<wgt id='1533'> +4.1032387E-01 </wgt>
<wgt id='1534'> +4.1059071E-01 </wgt>
<wgt id='1535'> +4.1275285E-01 </wgt>
<wgt id='1536'> +4.0779998E-01 </wgt>
<wgt id='1537'> +4.1578552E-01 </wgt>
<wgt id='1538'> +4.1060373E-01 </wgt>
<wgt id='1539'> +4.1476378E-01 </wgt>
<wgt id='1540'> +4.1029670E-01 </wgt>
<wgt id='1541'> +4.1260082E-01 </wgt>
<wgt id='1542'> +4.1470320E-01 </wgt>
<wgt id='1543'> +4.0490606E-01 </wgt>
<wgt id='1544'> +4.0932036E-01 </wgt>
<wgt id='1545'> +4.1642308E-01 </wgt>
<wgt id='1546'> +4.1257062E-01 </wgt>
<wgt id='1547'> +4.0960479E-01 </wgt>
<wgt id='1548'> +4.0766688E-01 </wgt>
<wgt id='1549'> +4.1294283E-01 </wgt>
<wgt id='1550'> +4.1168326E-01 </wgt>
<wgt id='1551'> +4.1202002E-01 </wgt>
<wgt id='1552'> +4.0996943E-01 </wgt>
<wgt id='1553'> +4.1317559E-01 </wgt>
<wgt id='1554'> +4.1608737E-01 </wgt>
<wgt id='1555'> +4.0514820E-01 </wgt>
<wgt id='1556'> +4.1247661E-01 </wgt>
<wgt id='1557'> +4.1169450E-01 </wgt>
<wgt id='1558'> +4.1238387E-01 </wgt>
<wgt id='1559'> +4.1216267E-01 </wgt>
<wgt id='1560'> +4.1332416E-01 </wgt>
<wgt id='1561'> +4.1127560E-01 </wgt>
<wgt id='1562'> +4.1285062E-01 </wgt>
<wgt id='1563'> +4.1171439E-01 </wgt>
<wgt id='1564'> +4.1186295E-01 </wgt>
<wgt id='1565'> +4.0785339E-01 </wgt>
<wgt id='1566'> +4.1669298E-01 </wgt>
<wgt id='1567'> +4.1238813E-01 </wgt>
<wgt id='1568'> +4.1998122E-01 </wgt>
<wgt id='1569'> +4.1844053E-01 </wgt>
<wgt id='1570'> +4.1694887E-01 </wgt>
<wgt id='1571'> +4.1549198E-01 </wgt>
<wgt id='1572'> +4.1390615E-01 </wgt>
<wgt id='1573'> +4.1057475E-01 </wgt>
<wgt id='1574'> +4.0878907E-01 </wgt>
<wgt id='1575'> +4.0718344E-01 </wgt>
<wgt id='1576'> +4.1238813E-01 </wgt>
<wgt id='1577'> +4.1281215E-01 </wgt>
<wgt id='1578'> +4.1255818E-01 </wgt>
<wgt id='1579'> +4.1226519E-01 </wgt>
<wgt id='1580'> +4.1219885E-01 </wgt>
<wgt id='1581'> +4.1414567E-01 </wgt>
<wgt id='1582'> +4.1470669E-01 </wgt>
<wgt id='1583'> +4.1304544E-01 </wgt>
<wgt id='1584'> +4.1317044E-01 </wgt>
<wgt id='1585'> +4.1412703E-01 </wgt>
<wgt id='1586'> +4.0739704E-01 </wgt>
<wgt id='1587'> +4.1234176E-01 </wgt>
<wgt id='1588'> +4.1411707E-01 </wgt>
<wgt id='1589'> +4.1388279E-01 </wgt>
<wgt id='1590'> +4.1899148E-01 </wgt>
<wgt id='1591'> +4.1467993E-01 </wgt>
<wgt id='1592'> +4.0588691E-01 </wgt>
<wgt id='1593'> +4.1446764E-01 </wgt>
<wgt id='1594'> +4.0789064E-01 </wgt>
<wgt id='1595'> +4.1465622E-01 </wgt>
<wgt id='1596'> +4.1609296E-01 </wgt>
<wgt id='1597'> +4.1539621E-01 </wgt>
<wgt id='1598'> +4.1399495E-01 </wgt>
<wgt id='1599'> +4.1200001E-01 </wgt>
<wgt id='1600'> +4.1305216E-01 </wgt>
<wgt id='1601'> +4.1247567E-01 </wgt>
<wgt id='1602'> +4.1394069E-01 </wgt>
<wgt id='1603'> +4.1627225E-01 </wgt>
<wgt id='1604'> +4.1304727E-01 </wgt>
<wgt id='1605'> +4.1219655E-01 </wgt>
<wgt id='1606'> +4.1400133E-01 </wgt>
<wgt id='1607'> +4.1372281E-01 </wgt>
<wgt id='1608'> +4.1364330E-01 </wgt>
<wgt id='1609'> +4.1359006E-01 </wgt>
<wgt id='1610'> +4.1488048E-01 </wgt>
<wgt id='1611'> +4.1088830E-01 </wgt>
<wgt id='1612'> +3.9037978E-01 </wgt>
<wgt id='1613'> +3.9021793E-01 </wgt>
<wgt id='1614'> +3.9033996E-01 </wgt>
<wgt id='1615'> +3.9003456E-01 </wgt>
<wgt id='1616'> +3.9041557E-01 </wgt>
<wgt id='1617'> +3.9054214E-01 </wgt>
<wgt id='1618'> +3.9064935E-01 </wgt>
<wgt id='1619'> +3.9042652E-01 </wgt>
<wgt id='1620'> +3.9065477E-01 </wgt>
<wgt id='1621'> +3.9027044E-01 </wgt>
<wgt id='1622'> +3.9063062E-01 </wgt>
<wgt id='1623'> +3.8959222E-01 </wgt>
<wgt id='1624'> +3.8915882E-01 </wgt>
<wgt id='1625'> +3.8899007E-01 </wgt>
<wgt id='1626'> +3.9030376E-01 </wgt>
<wgt id='1627'> +3.8901614E-01 </wgt>
<wgt id='1628'> +3.9105304E-01 </wgt>
<wgt id='1629'> +3.9081093E-01 </wgt>
<wgt id='1630'> +3.8929955E-01 </wgt>
<wgt id='1631'> +3.9102683E-01 </wgt>
<wgt id='1632'> +3.8942117E-01 </wgt>
<wgt id='1633'> +3.9100214E-01 </wgt>
<wgt id='1634'> +3.8983538E-01 </wgt>
<wgt id='1635'> +3.8961450E-01 </wgt>
<wgt id='1636'> +3.8983471E-01 </wgt>
<wgt id='1637'> +3.8990414E-01 </wgt>
<wgt id='1638'> +3.8966937E-01 </wgt>
<wgt id='1639'> +3.9088695E-01 </wgt>
<wgt id='1640'> +3.9096253E-01 </wgt>
<wgt id='1641'> +3.8920146E-01 </wgt>
<wgt id='1642'> +3.9030155E-01 </wgt>
<wgt id='1643'> +3.8993755E-01 </wgt>
<wgt id='1644'> +3.9099657E-01 </wgt>
<wgt id='1645'> +3.9052825E-01 </wgt>
<wgt id='1646'> +3.8923434E-01 </wgt>
<wgt id='1647'> +3.8963856E-01 </wgt>
<wgt id='1648'> +3.8962155E-01 </wgt>
<wgt id='1649'> +3.8945257E-01 </wgt>
<wgt id='1650'> +3.9023966E-01 </wgt>
<wgt id='1651'> +3.9247039E-01 </wgt>
<wgt id='1652'> +3.9178803E-01 </wgt>
<wgt id='1653'> +3.9055257E-01 </wgt>
<wgt id='1654'> +3.8790493E-01 </wgt>
<wgt id='1655'> +3.9094263E-01 </wgt>
<wgt id='1656'> +3.8993560E-01 </wgt>
<wgt id='1657'> +3.9017049E-01 </wgt>
<wgt id='1658'> +3.9096756E-01 </wgt>
<wgt id='1659'> +3.9159683E-01 </wgt>
<wgt id='1660'> +3.8964447E-01 </wgt>
<wgt id='1661'> +3.9029313E-01 </wgt>
<wgt id='1662'> +3.9108342E-01 </wgt>
<wgt id='1663'> +3.9205222E-01 </wgt>
<wgt id='1664'> +3.9101844E-01 </wgt>
<wgt id='1665'> +3.9131170E-01 </wgt>
<wgt id='1666'> +3.9123644E-01 </wgt>
<wgt id='1667'> +3.9059655E-01 </wgt>
<wgt id='1668'> +3.8971035E-01 </wgt>
<wgt id='1669'> +3.9028984E-01 </wgt>
<wgt id='1670'> +3.8982428E-01 </wgt>
<wgt id='1671'> +3.9036096E-01 </wgt>
<wgt id='1672'> +3.9013653E-01 </wgt>
<wgt id='1673'> +3.9000553E-01 </wgt>
<wgt id='1674'> +3.9009870E-01 </wgt>
<wgt id='1675'> +3.9066584E-01 </wgt>
<wgt id='1676'> +3.8946748E-01 </wgt>
<wgt id='1677'> +3.9097653E-01 </wgt>
<wgt id='1678'> +3.9098283E-01 </wgt>
<wgt id='1679'> +3.9094858E-01 </wgt>
<wgt id='1680'> +3.9107282E-01 </wgt>
<wgt id='1681'> +3.9061679E-01 </wgt>
<wgt id='1682'> +3.8977439E-01 </wgt>
<wgt id='1683'> +3.8996726E-01 </wgt>
<wgt id='1684'> +3.9030382E-01 </wgt>
<wgt id='1685'> +3.8929862E-01 </wgt>
<wgt id='1686'> +3.9030353E-01 </wgt>
<wgt id='1687'> +3.9034314E-01 </wgt>
<wgt id='1688'> +3.9047755E-01 </wgt>
<wgt id='1689'> +3.9049572E-01 </wgt>
<wgt id='1690'> +3.9027737E-01 </wgt>
<wgt id='1691'> +3.9106539E-01 </wgt>
<wgt id='1692'> +3.9032371E-01 </wgt>
<wgt id='1693'> +3.9086630E-01 </wgt>
<wgt id='1694'> +3.9103621E-01 </wgt>
<wgt id='1695'> +3.9041624E-01 </wgt>
<wgt id='1696'> +3.9038720E-01 </wgt>
<wgt id='1697'> +3.9050650E-01 </wgt>
<wgt id='1698'> +3.9046295E-01 </wgt>
<wgt id='1699'> +3.9015875E-01 </wgt>
<wgt id='1700'> +3.9086059E-01 </wgt>
<wgt id='1701'> +3.9001164E-01 </wgt>
<wgt id='1702'> +3.9052974E-01 </wgt>
<wgt id='1703'> +3.9064332E-01 </wgt>
<wgt id='1704'> +3.9056413E-01 </wgt>
<wgt id='1705'> +3.9054497E-01 </wgt>
<wgt id='1706'> +3.9024464E-01 </wgt>
<wgt id='1707'> +3.9056958E-01 </wgt>
<wgt id='1708'> +3.8997171E-01 </wgt>
<wgt id='1709'> +3.9060135E-01 </wgt>
<wgt id='1710'> +3.9010196E-01 </wgt>
<wgt id='1711'> +3.9055577E-01 </wgt>
<wgt id='1712'> +3.9005515E-01 </wgt>
<wgt id='1713'> +3.8633989E-01 </wgt>
<wgt id='1714'> +3.9683349E-01 </wgt>
<wgt id='1715'> +3.7584461E-01 </wgt>
<wgt id='1716'> +3.6336537E-01 </wgt>
<wgt id='1717'> +3.8410154E-01 </wgt>
<wgt id='1718'> +3.7035649E-01 </wgt>
<wgt id='1719'> +3.6573540E-01 </wgt>
<wgt id='1720'> +3.8570944E-01 </wgt>
<wgt id='1721'> +3.7601257E-01 </wgt>
<wgt id='1722'> +3.5855771E-01 </wgt>
<wgt id='1723'> +3.7395108E-01 </wgt>
<wgt id='1724'> +3.7948088E-01 </wgt>
<wgt id='1725'> +3.8187334E-01 </wgt>
<wgt id='1726'> +3.7323226E-01 </wgt>
<wgt id='1727'> +3.7622949E-01 </wgt>
<wgt id='1728'> +3.7260178E-01 </wgt>
<wgt id='1729'> +3.7468540E-01 </wgt>
<wgt id='1730'> +3.7074341E-01 </wgt>
<wgt id='1731'> +3.6220805E-01 </wgt>
<wgt id='1732'> +3.7897659E-01 </wgt>
<wgt id='1733'> +3.7716401E-01 </wgt>
<wgt id='1734'> +3.9238843E-01 </wgt>
<wgt id='1735'> +3.6410382E-01 </wgt>
<wgt id='1736'> +3.8261435E-01 </wgt>
<wgt id='1737'> +3.6531825E-01 </wgt>
<wgt id='1738'> +3.9013775E-01 </wgt>
<wgt id='1739'> +3.7615225E-01 </wgt>
<wgt id='1740'> +3.7579641E-01 </wgt>
<wgt id='1741'> +3.7034251E-01 </wgt>
<wgt id='1742'> +3.7892950E-01 </wgt>
<wgt id='1743'> +3.6871562E-01 </wgt>
<wgt id='1744'> +3.8323468E-01 </wgt>
<wgt id='1745'> +3.7534990E-01 </wgt>
<wgt id='1746'> +3.6839219E-01 </wgt>
<wgt id='1747'> +3.7948126E-01 </wgt>
<wgt id='1748'> +3.6869605E-01 </wgt>
<wgt id='1749'> +3.6909983E-01 </wgt>
<wgt id='1750'> +3.6764506E-01 </wgt>
<wgt id='1751'> +3.8490764E-01 </wgt>
<wgt id='1752'> +3.8402080E-01 </wgt>
<wgt id='1753'> +3.7792107E-01 </wgt>
<wgt id='1754'> +3.8076178E-01 </wgt>
<wgt id='1755'> +3.7291172E-01 </wgt>
<wgt id='1756'> +3.8912935E-01 </wgt>
<wgt id='1757'> +3.7596085E-01 </wgt>
<wgt id='1758'> +3.6140130E-01 </wgt>
<wgt id='1759'> +3.8070286E-01 </wgt>
<wgt id='1760'> +3.7318741E-01 </wgt>
<wgt id='1761'> +3.7927034E-01 </wgt>
<wgt id='1762'> +3.7622949E-01 </wgt>
<wgt id='1763'> +3.7692256E-01 </wgt>
<wgt id='1764'> +3.8021957E-01 </wgt>
<wgt id='1765'> +3.8068672E-01 </wgt>
<wgt id='1766'> +3.8791864E-01 </wgt>
<wgt id='1767'> +3.7025018E-01 </wgt>
<wgt id='1768'> +3.7389601E-01 </wgt>
<wgt id='1769'> +3.7459427E-01 </wgt>
<wgt id='1770'> +3.8235113E-01 </wgt>
<wgt id='1771'> +3.6760816E-01 </wgt>
<wgt id='1772'> +3.7875309E-01 </wgt>
<wgt id='1773'> +3.7697883E-01 </wgt>
<wgt id='1774'> +3.7762947E-01 </wgt>
<wgt id='1775'> +3.8250587E-01 </wgt>
<wgt id='1776'> +3.8260888E-01 </wgt>
<wgt id='1777'> +3.7907713E-01 </wgt>
<wgt id='1778'> +3.7608422E-01 </wgt>
<wgt id='1779'> +3.7387822E-01 </wgt>
<wgt id='1780'> +3.8588625E-01 </wgt>
<wgt id='1781'> +3.7618260E-01 </wgt>
<wgt id='1782'> +3.9758933E-01 </wgt>
<wgt id='1783'> +3.7634989E-01 </wgt>
<wgt id='1784'> +3.7688004E-01 </wgt>
<wgt id='1785'> +3.8190453E-01 </wgt>
<wgt id='1786'> +3.8703408E-01 </wgt>
<wgt id='1787'> +3.7340285E-01 </wgt>
<wgt id='1788'> +3.7191444E-01 </wgt>
<wgt id='1789'> +3.8489681E-01 </wgt>
<wgt id='1790'> +3.7366042E-01 </wgt>
<wgt id='1791'> +3.7227168E-01 </wgt>
<wgt id='1792'> +3.7872275E-01 </wgt>
<wgt id='1793'> +3.8280567E-01 </wgt>
<wgt id='1794'> +3.7032998E-01 </wgt>
<wgt id='1795'> +3.5433536E-01 </wgt>
<wgt id='1796'> +3.7252445E-01 </wgt>
<wgt id='1797'> +3.7057201E-01 </wgt>
<wgt id='1798'> +3.8879468E-01 </wgt>
<wgt id='1799'> +3.7696357E-01 </wgt>
<wgt id='1800'> +3.8104318E-01 </wgt>
<wgt id='1801'> +3.6641933E-01 </wgt>
<wgt id='1802'> +3.6779514E-01 </wgt>
<wgt id='1803'> +3.7321759E-01 </wgt>
<wgt id='1804'> +3.7632342E-01 </wgt>
<wgt id='1805'> +3.7548915E-01 </wgt>
<wgt id='1806'> +3.7878056E-01 </wgt>
<wgt id='1807'> +3.7767132E-01 </wgt>
<wgt id='1808'> +3.7283772E-01 </wgt>
<wgt id='1809'> +3.8157697E-01 </wgt>
<wgt id='1810'> +3.7174071E-01 </wgt>
<wgt id='1811'> +3.6997904E-01 </wgt>
<wgt id='1812'> +3.6631081E-01 </wgt>
<wgt id='1813'> +3.7296726E-01 </wgt>
<wgt id='1814'> +3.6260758E-01 </wgt>
<wgt id='1815'> +3.7313583E-01 </wgt>
<wgt id='1816'> +4.1594591E-01 </wgt>
<wgt id='1817'> +4.2542886E-01 </wgt>
<wgt id='1818'> +4.2239028E-01 </wgt>
<wgt id='1819'> +4.2015253E-01 </wgt>
<wgt id='1820'> +4.1087922E-01 </wgt>
<wgt id='1821'> +4.3699079E-01 </wgt>
<wgt id='1822'> +4.0936990E-01 </wgt>
<wgt id='1823'> +4.1899704E-01 </wgt>
<wgt id='1824'> +4.1688928E-01 </wgt>
<wgt id='1825'> +4.0182166E-01 </wgt>
<wgt id='1826'> +4.3246812E-01 </wgt>
<wgt id='1827'> +4.2932530E-01 </wgt>
<wgt id='1828'> +4.1179769E-01 </wgt>
<wgt id='1829'> +4.2299787E-01 </wgt>
<wgt id='1830'> +4.3459342E-01 </wgt>
<wgt id='1831'> +4.2079219E-01 </wgt>
<wgt id='1832'> +4.1578328E-01 </wgt>
<wgt id='1833'> +4.2997926E-01 </wgt>
<wgt id='1834'> +4.1849421E-01 </wgt>
<wgt id='1835'> +4.0723587E-01 </wgt>
<wgt id='1836'> +4.1070520E-01 </wgt>
<wgt id='1837'> +4.0519395E-01 </wgt>
<wgt id='1838'> +4.1263551E-01 </wgt>
<wgt id='1839'> +4.1326949E-01 </wgt>
<wgt id='1840'> +4.0331540E-01 </wgt>
<wgt id='1841'> +4.1486705E-01 </wgt>
<wgt id='1842'> +4.0258289E-01 </wgt>
<wgt id='1843'> +4.2780203E-01 </wgt>
<wgt id='1844'> +4.2569773E-01 </wgt>
<wgt id='1845'> +4.1972530E-01 </wgt>
<wgt id='1846'> +4.0095116E-01 </wgt>
<wgt id='1847'> +4.0938420E-01 </wgt>
<wgt id='1848'> +4.2048216E-01 </wgt>
<wgt id='1849'> +4.1628067E-01 </wgt>
<wgt id='1850'> +3.9815816E-01 </wgt>
<wgt id='1851'> +4.1928931E-01 </wgt>
<wgt id='1852'> +4.1288114E-01 </wgt>
<wgt id='1853'> +4.1128932E-01 </wgt>
<wgt id='1854'> +4.1847516E-01 </wgt>
<wgt id='1855'> +4.1790188E-01 </wgt>
<wgt id='1856'> +4.1275914E-01 </wgt>
<wgt id='1857'> +4.1689572E-01 </wgt>
<wgt id='1858'> +4.0200887E-01 </wgt>
<wgt id='1859'> +4.0195447E-01 </wgt>
<wgt id='1860'> +4.1131655E-01 </wgt>
<wgt id='1861'> +4.2094331E-01 </wgt>
<wgt id='1862'> +4.0594609E-01 </wgt>
<wgt id='1863'> +4.1766850E-01 </wgt>
<wgt id='1864'> +4.1884522E-01 </wgt>
<wgt id='1865'> +4.3412990E-01 </wgt>
<wgt id='1866'> +4.2133023E-01 </wgt>
<wgt id='1867'> +4.1327706E-01 </wgt>
<wgt id='1868'> +4.1822073E-01 </wgt>
<wgt id='1869'> +4.0636438E-01 </wgt>
<wgt id='1870'> +4.1666126E-01 </wgt>
<wgt id='1871'> +4.1713614E-01 </wgt>
<wgt id='1872'> +4.2467497E-01 </wgt>
<wgt id='1873'> +4.1615831E-01 </wgt>
<wgt id='1874'> +4.2402692E-01 </wgt>
<wgt id='1875'> +4.0699807E-01 </wgt>
<wgt id='1876'> +4.1543958E-01 </wgt>
<wgt id='1877'> +4.1988787E-01 </wgt>
<wgt id='1878'> +4.1208509E-01 </wgt>
<wgt id='1879'> +4.1287264E-01 </wgt>
<wgt id='1880'> +4.2257326E-01 </wgt>
<wgt id='1881'> +3.9508422E-01 </wgt>
<wgt id='1882'> +4.1130452E-01 </wgt>
<wgt id='1883'> +4.2111232E-01 </wgt>
<wgt id='1884'> +4.1287378E-01 </wgt>
<wgt id='1885'> +4.1629427E-01 </wgt>
<wgt id='1886'> +4.1340538E-01 </wgt>
<wgt id='1887'> +4.0957083E-01 </wgt>
<wgt id='1888'> +4.1134474E-01 </wgt>
<wgt id='1889'> +4.3542078E-01 </wgt>
<wgt id='1890'> +4.0861264E-01 </wgt>
<wgt id='1891'> +4.2711874E-01 </wgt>
<wgt id='1892'> +4.1197945E-01 </wgt>
<wgt id='1893'> +4.0751692E-01 </wgt>
<wgt id='1894'> +4.0888111E-01 </wgt>
<wgt id='1895'> +4.2512660E-01 </wgt>
<wgt id='1896'> +4.1253803E-01 </wgt>
<wgt id='1897'> +4.1194972E-01 </wgt>
<wgt id='1898'> +4.2652024E-01 </wgt>
<wgt id='1899'> +3.9677812E-01 </wgt>
<wgt id='1900'> +4.2621918E-01 </wgt>
<wgt id='1901'> +4.2094366E-01 </wgt>
<wgt id='1902'> +4.1625920E-01 </wgt>
<wgt id='1903'> +4.2127892E-01 </wgt>
<wgt id='1904'> +4.2408115E-01 </wgt>
<wgt id='1905'> +4.0122097E-01 </wgt>
<wgt id='1906'> +4.1007381E-01 </wgt>
<wgt id='1907'> +4.1863844E-01 </wgt>
<wgt id='1908'> +4.1112203E-01 </wgt>
<wgt id='1909'> +4.2310645E-01 </wgt>
<wgt id='1910'> +4.1581398E-01 </wgt>
<wgt id='1911'> +4.3155483E-01 </wgt>
<wgt id='1912'> +4.0087063E-01 </wgt>
<wgt id='1913'> +4.1779348E-01 </wgt>
<wgt id='1914'> +4.0845863E-01 </wgt>
<wgt id='1915'> +4.1907102E-01 </wgt>
<wgt id='1916'> +4.2025784E-01 </wgt>
<wgt id='1917'> +4.3382447E-01 </wgt>
<wgt id='1918'> +4.2428584E-01 </wgt>
<wgt id='1919'> +4.1594591E-01 </wgt>
<wgt id='1920'> +4.2542886E-01 </wgt>
<wgt id='1921'> +4.2239028E-01 </wgt>
<wgt id='1922'> +4.2015253E-01 </wgt>
<wgt id='1923'> +4.1087922E-01 </wgt>
<wgt id='1924'> +4.3699079E-01 </wgt>
<wgt id='1925'> +4.0936990E-01 </wgt>
<wgt id='1926'> +4.1899704E-01 </wgt>
<wgt id='1927'> +4.1688928E-01 </wgt>
<wgt id='1928'> +4.0182166E-01 </wgt>
<wgt id='1929'> +4.3246812E-01 </wgt>
<wgt id='1930'> +4.2932530E-01 </wgt>
<wgt id='1931'> +4.1179769E-01 </wgt>
<wgt id='1932'> +4.2299787E-01 </wgt>
<wgt id='1933'> +4.3459342E-01 </wgt>
<wgt id='1934'> +4.2079219E-01 </wgt>
<wgt id='1935'> +4.1578328E-01 </wgt>
<wgt id='1936'> +4.2997926E-01 </wgt>
<wgt id='1937'> +4.1849421E-01 </wgt>
<wgt id='1938'> +4.0723587E-01 </wgt>
<wgt id='1939'> +4.1070520E-01 </wgt>
<wgt id='1940'> +4.0519395E-01 </wgt>
<wgt id='1941'> +4.1263551E-01 </wgt>
<wgt id='1942'> +4.1326949E-01 </wgt>
<wgt id='1943'> +4.0331540E-01 </wgt>
<wgt id='1944'> +4.1486705E-01 </wgt>
<wgt id='1945'> +4.0258289E-01 </wgt>
<wgt id='1946'> +4.2780203E-01 </wgt>
<wgt id='1947'> +4.2569773E-01 </wgt>
<wgt id='1948'> +4.1972530E-01 </wgt>
<wgt id='1949'> +4.0095116E-01 </wgt>
<wgt id='1950'> +4.0938420E-01 </wgt>
<wgt id='1951'> +4.2048216E-01 </wgt>
<wgt id='1952'> +4.1628067E-01 </wgt>
<wgt id='1953'> +3.9815816E-01 </wgt>
<wgt id='1954'> +4.1928931E-01 </wgt>
<wgt id='1955'> +4.1288114E-01 </wgt>
<wgt id='1956'> +4.1128932E-01 </wgt>
<wgt id='1957'> +4.1847516E-01 </wgt>
<wgt id='1958'> +4.1790188E-01 </wgt>
<wgt id='1959'> +4.1275914E-01 </wgt>
<wgt id='1960'> +4.1689572E-01 </wgt>
<wgt id='1961'> +4.0200887E-01 </wgt>
<wgt id='1962'> +4.0195447E-01 </wgt>
<wgt id='1963'> +4.1131655E-01 </wgt>
<wgt id='1964'> +4.2094331E-01 </wgt>
<wgt id='1965'> +4.0594609E-01 </wgt>
<wgt id='1966'> +4.1766850E-01 </wgt>
<wgt id='1967'> +4.1884522E-01 </wgt>
<wgt id='1968'> +4.3412990E-01 </wgt>
<wgt id='1969'> +4.2133023E-01 </wgt>
<wgt id='1970'> +4.1327706E-01 </wgt>
<wgt id='1971'> +4.1822073E-01 </wgt>
<wgt id='1972'> +4.0636438E-01 </wgt>
<wgt id='1973'> +4.1666126E-01 </wgt>
<wgt id='1974'> +4.1713614E-01 </wgt>
<wgt id='1975'> +4.2467497E-01 </wgt>
<wgt id='1976'> +4.1615831E-01 </wgt>
<wgt id='1977'> +4.2402692E-01 </wgt>
<wgt id='1978'> +4.0699807E-01 </wgt>
<wgt id='1979'> +4.1543958E-01 </wgt>
<wgt id='1980'> +4.1988787E-01 </wgt>
<wgt id='1981'> +4.1208509E-01 </wgt>
<wgt id='1982'> +4.1287264E-01 </wgt>
<wgt id='1983'> +4.2257326E-01 </wgt>
<wgt id='1984'> +3.9508422E-01 </wgt>
<wgt id='1985'> +4.1130452E-01 </wgt>
<wgt id='1986'> +4.2111232E-01 </wgt>
<wgt id='1987'> +4.1287378E-01 </wgt>
<wgt id='1988'> +4.1629427E-01 </wgt>
<wgt id='1989'> +4.1340538E-01 </wgt>
<wgt id='1990'> +4.0957083E-01 </wgt>
<wgt id='1991'> +4.1134474E-01 </wgt>
<wgt id='1992'> +4.3542078E-01 </wgt>
<wgt id='1993'> +4.0861264E-01 </wgt>
<wgt id='1994'> +4.2711874E-01 </wgt>
<wgt id='1995'> +4.1197945E-01 </wgt>
<wgt id='1996'> +4.0751692E-01 </wgt>
<wgt id='1997'> +4.0888111E-01 </wgt>
<wgt id='1998'> +4.2512660E-01 </wgt>
<wgt id='1999'> +4.1253803E-01 </wgt>
<wgt id='2000'> +4.1194972E-01 </wgt>
<wgt id='2001'> +4.2652024E-01 </wgt>
<wgt id='2002'> +3.9677812E-01 </wgt>
<wgt id='2003'> +4.2621918E-01 </wgt>
<wgt id='2004'> +4.2094366E-01 </wgt>
<wgt id='2005'> +4.1625920E-01 </wgt>
<wgt id='2006'> +4.2127892E-01 </wgt>
<wgt id='2007'> +4.2408115E-01 </wgt>
<wgt id='2008'> +4.0122097E-01 </wgt>
<wgt id='2009'> +4.1007381E-01 </wgt>
<wgt id='2010'> +4.1863844E-01 </wgt>
<wgt id='2011'> +4.1112203E-01 </wgt>
<wgt id='2012'> +4.2310645E-01 </wgt>
<wgt id='2013'> +4.1581398E-01 </wgt>
<wgt id='2014'> +4.3155483E-01 </wgt>
<wgt id='2015'> +4.0087063E-01 </wgt>
<wgt id='2016'> +4.1779348E-01 </wgt>
<wgt id='2017'> +4.0845863E-01 </wgt>
<wgt id='2018'> +4.1907102E-01 </wgt>
<wgt id='2019'> +4.2025784E-01 </wgt>
<wgt id='2020'> +4.1467568E-01 </wgt>
<wgt id='2021'> +4.1780329E-01 </wgt>
<wgt id='2022'> +4.1159553E-01 </wgt>
</rwgt>
</event>
<event>
13      2 +3.9556008E-01 1.86312200e+02 7.81860800e-03 1.09088500e-01
       21 -1    0    0  502  503 +0.0000000000e+00 +0.0000000000e+00 +5.5459986395e+01 5.5459986395e+01 0.0000000000e+00 0.0000e+00 1.0000e+00
        1 -1    0    0  501    0 +0.0000000000e+00 +0.0000000000e+00 -3.2228083488e+03 3.2228083488e+03 5.0400000000e-03 0.0000e+00 -1.0000e+00
 -8000001  2    1    2    0  503 +1.0226068337e+02 -2.8442603804e+01 -2.4784793517e+03 2.5522787183e+03 6.0000044173e+02 0.0000e+00 0.0000e+00
        2  1    1    2  501    0 -6.4646166645e+01 -1.4783898554e+01 -6.5683958342e+02 6.6017870980e+02 2.5500000000e-03 0.0000e+00 -1.0000e+00
        5  1    1    2  502    0 -3.7614516724e+01 +4.3226502357e+01 -3.2029427266e+01 6.5810907045e+01 4.6700000000e+00 0.0000e+00 -1.0000e+00
       -6  2    3    3    0  503 -3.8788819737e+01 -1.1119756663e+02 -3.2623162489e+02 3.9190271416e+02 1.8245874308e+02 0.0000e+00 0.0000e+00
       -5  1    6    6    0  503 -4.7706606257e+01 +3.0981132939e+00 -1.5125076137e+01 5.0359660597e+01 4.6700000000e+00 0.0000e+00 1.0000e+00
      -24  2    6    6    0    0 +8.9177865201e+00 -1.1429567992e+02 -3.1110654875e+02 3.4154305356e+02 8.1983799591e+01 0.0000e+00 0.0000e+00
      -14  1    8    8    0    0 -1.4877267074e+01 -1.0331177445e+02 -2.8895017966e+02 3.0722444913e+02 0.0000000000e+00 0.0000e+00 1.0000e+00
       13  1    8    8    0    0 +2.3795053594e+01 -1.0983905469e+01 -2.2156369087e+01 3.4318604431e+01 1.0566000000e-01 0.0000e+00 -1.0000e+00
       23  2    3    3    0    0 +1.4104950311e+02 +8.2754962824e+01 -2.1522477268e+03 2.1603760042e+03 9.1163894497e+01 0.0000e+00 0.0000e+00
       16  1   11   11    0    0 +1.3974365544e+02 +9.2072842681e+01 -1.7418884013e+03 1.7499088263e+03 0.0000000000e+00 0.0000e+00 -1.0000e+00
      -16  1   11   11    0    0 +1.3058476651e+00 -9.3178798568e+00 -4.1035932552e+02 4.1046717794e+02 0.0000000000e+00 0.0000e+00 1.0000e+00
<mgrwt>
<rscale>  1 0.11216022e+03</rscale>
<asrwt>0</asrwt>
<pdfrwt beam="1">  1       21 0.85323056e-02 0.18631219e+03</pdfrwt>
<pdfrwt beam="2">  1        1 0.49581667e+00 0.67520627e+02</pdfrwt>
<totfact> 0.61925902e+02</totfact>
</mgrwt>
<rwgt>
<wgt id='1001'> +3.9556008E-01 </wgt>
<wgt id='1002'> +2.3809101E-01 </wgt>
<wgt id='1003'> +2.3808296E-01 </wgt>
<wgt id='1004'> +2.8414811E-01 </wgt>
<wgt id='1005'> +2.0755982E-01 </wgt>
<wgt id='1006'> +3.5772786E-01 </wgt>
<wgt id='1007'> +2.1927862E-01 </wgt>
<wgt id='1008'> +2.1927151E-01 </wgt>
<wgt id='1009'> +2.5966925E-01 </wgt>
<wgt id='1010'> +1.9219764E-01 </wgt>
<wgt id='1011'> +4.4267018E-01 </wgt>
<wgt id='1012'> +2.6053616E-01 </wgt>
<wgt id='1013'> +2.6052690E-01 </wgt>
<wgt id='1014'> +3.1388215E-01 </wgt>
<wgt id='1015'> +2.2566147E-01 </wgt>
<wgt id='1016'> +3.5569183E-01 </wgt>
<wgt id='1017'> +2.1885580E-01 </wgt>
<wgt id='1018'> +2.1884848E-01 </wgt>
<wgt id='1019'> +2.6052690E-01 </wgt>
<wgt id='1020'> +1.9129682E-01 </wgt>
<wgt id='1021'> +3.2167271E-01 </wgt>
<wgt id='1022'> +2.0156324E-01 </wgt>
<wgt id='1023'> +2.0155678E-01 </wgt>
<wgt id='1024'> +2.3808296E-01 </wgt>
<wgt id='1025'> +1.7713832E-01 </wgt>
<wgt id='1026'> +3.9805374E-01 </wgt>
<wgt id='1027'> +2.3948761E-01 </wgt>
<wgt id='1028'> +2.3947919E-01 </wgt>
<wgt id='1029'> +2.8778915E-01 </wgt>
<wgt id='1030'> +2.0798014E-01 </wgt>
<wgt id='1031'> +4.4291529E-01 </wgt>
<wgt id='1032'> +2.5967823E-01 </wgt>
<wgt id='1033'> +2.5966925E-01 </wgt>
<wgt id='1034'> +3.1067619E-01 </wgt>
<wgt id='1035'> +2.2588666E-01 </wgt>
<wgt id='1036'> +4.0055391E-01 </wgt>
<wgt id='1037'> +2.3916015E-01 </wgt>
<wgt id='1038'> +2.3915222E-01 </wgt>
<wgt id='1039'> +2.8391199E-01 </wgt>
<wgt id='1040'> +2.0916805E-01 </wgt>
<wgt id='1041'> +4.9566526E-01 </wgt>
<wgt id='1042'> +2.8415842E-01 </wgt>
<wgt id='1043'> +2.8414811E-01 </wgt>
<wgt id='1044'> +3.4318620E-01 </wgt>
<wgt id='1045'> +2.4558662E-01 </wgt>
<wgt id='1046'> +3.9556008E-01 </wgt>
<wgt id='1047'> +3.9556008E-01 </wgt>
<wgt id='1048'> +3.9556008E-01 </wgt>
<wgt id='1049'> +4.0496832E-01 </wgt>
<wgt id='1050'> +3.9501520E-01 </wgt>
<wgt id='1051'> +3.9871909E-01 </wgt>
<wgt id='1052'> +4.0478406E-01 </wgt>
<wgt id='1053'> +3.9948334E-01 </wgt>
<wgt id='1054'> +4.0446105E-01 </wgt>
<wgt id='1055'> +3.8679728E-01 </wgt>
<wgt id='1056'> +3.9538924E-01 </wgt>
<wgt id='1057'> +4.0737755E-01 </wgt>
<wgt id='1058'> +4.1057585E-01 </wgt>
<wgt id='1059'> +3.8900881E-01 </wgt>
<wgt id='1060'> +4.0941513E-01 </wgt>
<wgt id='1061'> +4.0101581E-01 </wgt>
<wgt id='1062'> +3.9648756E-01 </wgt>
<wgt id='1063'> +3.9033729E-01 </wgt>
<wgt id='1064'> +4.0889598E-01 </wgt>
<wgt id='1065'> +3.8838499E-01 </wgt>
<wgt id='1066'> +3.8299545E-01 </wgt>
<wgt id='1067'> +3.9468572E-01 </wgt>
<wgt id='1068'> +3.7480195E-01 </wgt>
<wgt id='1069'> +3.9517728E-01 </wgt>
<wgt id='1070'> +4.0772466E-01 </wgt>
<wgt id='1071'> +3.9899891E-01 </wgt>
<wgt id='1072'> +3.9963168E-01 </wgt>
<wgt id='1073'> +3.7165675E-01 </wgt>
<wgt id='1074'> +4.0924655E-01 </wgt>
<wgt id='1075'> +3.9926664E-01 </wgt>
<wgt id='1076'> +3.9470686E-01 </wgt>
<wgt id='1077'> +4.0445208E-01 </wgt>
<wgt id='1078'> +3.8215940E-01 </wgt>
<wgt id='1079'> +4.0703804E-01 </wgt>
<wgt id='1080'> +3.7702071E-01 </wgt>
<wgt id='1081'> +3.5010972E-01 </wgt>
<wgt id='1082'> +4.0474321E-01 </wgt>
<wgt id='1083'> +3.9641850E-01 </wgt>
<wgt id='1084'> +3.8923556E-01 </wgt>
<wgt id='1085'> +3.9795585E-01 </wgt>
<wgt id='1086'> +3.8644321E-01 </wgt>
<wgt id='1087'> +3.9650787E-01 </wgt>
<wgt id='1088'> +3.9102292E-01 </wgt>
<wgt id='1089'> +3.8281843E-01 </wgt>
<wgt id='1090'> +3.9312994E-01 </wgt>
<wgt id='1091'> +3.8319629E-01 </wgt>
<wgt id='1092'> +3.9480292E-01 </wgt>
<wgt id='1093'> +3.9365205E-01 </wgt>
<wgt id='1094'> +3.8571724E-01 </wgt>
<wgt id='1095'> +3.8998311E-01 </wgt>
<wgt id='1096'> +4.0670359E-01 </wgt>
<wgt id='1097'> +3.9305688E-01 </wgt>
<wgt id='1098'> +3.8333774E-01 </wgt>
<wgt id='1099'> +4.0259288E-01 </wgt>
<wgt id='1100'> +3.9110153E-01 </wgt>
<wgt id='1101'> +4.0548977E-01 </wgt>
<wgt id='1102'> +4.0066442E-01 </wgt>
<wgt id='1103'> +3.9820130E-01 </wgt>
<wgt id='1104'> +4.0204717E-01 </wgt>
<wgt id='1105'> +3.9142460E-01 </wgt>
<wgt id='1106'> +3.8747112E-01 </wgt>
<wgt id='1107'> +3.9070108E-01 </wgt>
<wgt id='1108'> +3.9725067E-01 </wgt>
<wgt id='1109'> +3.9654807E-01 </wgt>
<wgt id='1110'> +3.9804943E-01 </wgt>
<wgt id='1111'> +3.9210777E-01 </wgt>
<wgt id='1112'> +3.9624413E-01 </wgt>
<wgt id='1113'> +3.9571406E-01 </wgt>
<wgt id='1114'> +3.9429078E-01 </wgt>
<wgt id='1115'> +3.9254150E-01 </wgt>
<wgt id='1116'> +3.9324050E-01 </wgt>
<wgt id='1117'> +3.9922789E-01 </wgt>
<wgt id='1118'> +3.9230219E-01 </wgt>
<wgt id='1119'> +3.9629804E-01 </wgt>
<wgt id='1120'> +4.0110870E-01 </wgt>
<wgt id='1121'> +3.9577443E-01 </wgt>
<wgt id='1122'> +3.9207907E-01 </wgt>
<wgt id='1123'> +3.9463971E-01 </wgt>
<wgt id='1124'> +3.9777846E-01 </wgt>
<wgt id='1125'> +3.9451715E-01 </wgt>
<wgt id='1126'> +3.9570288E-01 </wgt>
<wgt id='1127'> +3.9736840E-01 </wgt>
<wgt id='1128'> +3.9653934E-01 </wgt>
<wgt id='1129'> +3.9172682E-01 </wgt>
<wgt id='1130'> +3.9636268E-01 </wgt>
<wgt id='1131'> +3.9614092E-01 </wgt>
<wgt id='1132'> +3.9546848E-01 </wgt>
<wgt id='1133'> +3.9823186E-01 </wgt>
<wgt id='1134'> +3.9494731E-01 </wgt>
<wgt id='1135'> +3.9821129E-01 </wgt>
<wgt id='1136'> +3.9255326E-01 </wgt>
<wgt id='1137'> +3.9418020E-01 </wgt>
<wgt id='1138'> +3.9495483E-01 </wgt>
<wgt id='1139'> +3.9305809E-01 </wgt>
<wgt id='1140'> +3.9459814E-01 </wgt>
<wgt id='1141'> +3.9742268E-01 </wgt>
<wgt id='1142'> +3.9688352E-01 </wgt>
<wgt id='1143'> +3.9476735E-01 </wgt>
<wgt id='1144'> +3.9703618E-01 </wgt>
<wgt id='1145'> +3.9530213E-01 </wgt>
<wgt id='1146'> +3.9855046E-01 </wgt>
<wgt id='1147'> +3.9715965E-01 </wgt>
<wgt id='1148'> +3.9556008E-01 </wgt>
<wgt id='1149'> +3.7526297E-01 </wgt>
<wgt id='1150'> +3.9894091E-01 </wgt>
<wgt id='1151'> +3.9466198E-01 </wgt>
<wgt id='1152'> +4.5324802E-01 </wgt>
<wgt id='1153'> +4.7994683E-01 </wgt>
<wgt id='1154'> +4.1270419E-01 </wgt>
<wgt id='1155'> +3.5982659E-01 </wgt>
<wgt id='1156'> +2.6700692E-01 </wgt>
<wgt id='1157'> +2.5866570E-01 </wgt>
<wgt id='1158'> +4.7182501E-01 </wgt>
<wgt id='1159'> +2.5720242E-01 </wgt>
<wgt id='1160'> +3.8082503E-01 </wgt>
<wgt id='1161'> +3.9142608E-01 </wgt>
<wgt id='1162'> +3.2008939E-01 </wgt>
<wgt id='1163'> +4.3982365E-01 </wgt>
<wgt id='1164'> +2.6934314E-01 </wgt>
<wgt id='1165'> +3.9615583E-01 </wgt>
<wgt id='1166'> +4.0319391E-01 </wgt>
<wgt id='1167'> +3.9809412E-01 </wgt>
<wgt id='1168'> +3.1960581E-01 </wgt>
<wgt id='1169'> +2.9481553E-01 </wgt>
<wgt id='1170'> +5.0510803E-01 </wgt>
<wgt id='1171'> +5.1690191E-01 </wgt>
<wgt id='1172'> +2.9051717E-01 </wgt>
<wgt id='1173'> +4.1378727E-01 </wgt>
<wgt id='1174'> +2.2926754E-01 </wgt>
<wgt id='1175'> +3.6900708E-01 </wgt>
<wgt id='1176'> +4.3222844E-01 </wgt>
<wgt id='1177'> +3.6743489E-01 </wgt>
<wgt id='1178'> +4.3710295E-01 </wgt>
<wgt id='1179'> +2.6125763E-01 </wgt>
<wgt id='1180'> +4.5880061E-01 </wgt>
<wgt id='1181'> +3.8144086E-01 </wgt>
<wgt id='1182'> +4.1232320E-01 </wgt>
<wgt id='1183'> +3.6885138E-01 </wgt>
<wgt id='1184'> +3.8981345E-01 </wgt>
<wgt id='1185'> +3.9889688E-01 </wgt>
<wgt id='1186'> +2.9006737E-01 </wgt>
<wgt id='1187'> +3.6811718E-01 </wgt>
<wgt id='1188'> +3.3676021E-01 </wgt>
<wgt id='1189'> +2.5542256E-01 </wgt>
<wgt id='1190'> +5.0799347E-01 </wgt>
<wgt id='1191'> +3.6004900E-01 </wgt>
<wgt id='1192'> +3.3815251E-01 </wgt>
<wgt id='1193'> +3.0123113E-01 </wgt>
<wgt id='1194'> +2.8925479E-01 </wgt>
<wgt id='1195'> +4.2797172E-01 </wgt>
<wgt id='1196'> +4.2138820E-01 </wgt>
<wgt id='1197'> +4.8497981E-01 </wgt>
<wgt id='1198'> +4.9778515E-01 </wgt>
<wgt id='1199'> +3.2833786E-01 </wgt>
<wgt id='1200'> +5.6178471E-01 </wgt>
<wgt id='1201'> +1.9309372E-01 </wgt>
<wgt id='1202'> +3.7052862E-01 </wgt>
<wgt id='1203'> +6.1970070E-01 </wgt>
<wgt id='1204'> +4.1261622E-01 </wgt>
<wgt id='1205'> +3.4651934E-01 </wgt>
<wgt id='1206'> +2.8961545E-01 </wgt>
<wgt id='1207'> +3.9313415E-01 </wgt>
<wgt id='1208'> +3.2757314E-01 </wgt>
<wgt id='1209'> +5.4917206E-01 </wgt>
<wgt id='1210'> +4.0595670E-01 </wgt>
<wgt id='1211'> +5.1842693E-01 </wgt>
<wgt id='1212'> +2.8141361E-01 </wgt>
<wgt id='1213'> +3.8546481E-01 </wgt>
<wgt id='1214'> +4.7310136E-01 </wgt>
<wgt id='1215'> +4.0072457E-01 </wgt>
<wgt id='1216'> +3.1836539E-01 </wgt>
<wgt id='1217'> +3.5174701E-01 </wgt>
<wgt id='1218'> +3.5705618E-01 </wgt>
<wgt id='1219'> +2.8833406E-01 </wgt>
<wgt id='1220'> +4.0354403E-01 </wgt>
<wgt id='1221'> +3.8530606E-01 </wgt>
<wgt id='1222'> +4.6116975E-01 </wgt>
<wgt id='1223'> +3.3442519E-01 </wgt>
<wgt id='1224'> +3.2724322E-01 </wgt>
<wgt id='1225'> +4.5978854E-01 </wgt>
<wgt id='1226'> +3.3780637E-01 </wgt>
<wgt id='1227'> +3.7640481E-01 </wgt>
<wgt id='1228'> +3.9739049E-01 </wgt>
<wgt id='1229'> +3.2800161E-01 </wgt>
<wgt id='1230'> +2.7205814E-01 </wgt>
<wgt id='1231'> +3.9615583E-01 </wgt>
<wgt id='1232'> +3.8723397E-01 </wgt>
<wgt id='1233'> +3.7556230E-01 </wgt>
<wgt id='1234'> +2.5850421E-01 </wgt>
<wgt id='1235'> +3.3051801E-01 </wgt>
<wgt id='1236'> +4.6367766E-01 </wgt>
<wgt id='1237'> +1.3952734E-01 </wgt>
<wgt id='1238'> +4.3635157E-01 </wgt>
<wgt id='1239'> +3.4475211E-01 </wgt>
<wgt id='1240'> +2.8768913E-01 </wgt>
<wgt id='1241'> +2.7842864E-01 </wgt>
<wgt id='1242'> +3.3874116E-01 </wgt>
<wgt id='1243'> +4.6961052E-01 </wgt>
<wgt id='1244'> +3.0465322E-01 </wgt>
<wgt id='1245'> +3.6902412E-01 </wgt>
<wgt id='1246'> +4.4513578E-01 </wgt>
<wgt id='1247'> +3.6023201E-01 </wgt>
<wgt id='1248'> +3.5457264E-01 </wgt>
<wgt id='1249'> +4.4773639E-01 </wgt>
<wgt id='1250'> +4.7299066E-01 </wgt>
<wgt id='1251'> +4.6648654E-01 </wgt>
<wgt id='1252'> +4.5028982E-01 </wgt>
<wgt id='1253'> +4.5390970E-01 </wgt>
<wgt id='1254'> +4.0237312E-01 </wgt>
<wgt id='1255'> +4.9778903E-01 </wgt>
<wgt id='1256'> +4.9766040E-01 </wgt>
<wgt id='1257'> +4.9790492E-01 </wgt>
<wgt id='1258'> +4.9915946E-01 </wgt>
<wgt id='1259'> +4.9713307E-01 </wgt>
<wgt id='1260'> +4.9575616E-01 </wgt>
<wgt id='1261'> +5.0056064E-01 </wgt>
<wgt id='1262'> +4.9697785E-01 </wgt>
<wgt id='1263'> +4.9830985E-01 </wgt>
<wgt id='1264'> +5.1197456E-01 </wgt>
<wgt id='1265'> +4.8821497E-01 </wgt>
<wgt id='1266'> +4.9683279E-01 </wgt>
<wgt id='1267'> +4.9879305E-01 </wgt>
<wgt id='1268'> +4.9037810E-01 </wgt>
<wgt id='1269'> +5.0504494E-01 </wgt>
<wgt id='1270'> +4.9991840E-01 </wgt>
<wgt id='1271'> +4.9471657E-01 </wgt>
<wgt id='1272'> +4.7999118E-01 </wgt>
<wgt id='1273'> +5.1211187E-01 </wgt>
<wgt id='1274'> +4.9826327E-01 </wgt>
<wgt id='1275'> +4.9698907E-01 </wgt>
<wgt id='1276'> +4.8537610E-01 </wgt>
<wgt id='1277'> +5.1144691E-01 </wgt>
<wgt id='1278'> +5.0380400E-01 </wgt>
<wgt id='1279'> +4.9229525E-01 </wgt>
<wgt id='1280'> +4.8615424E-01 </wgt>
<wgt id='1281'> +5.3923904E-01 </wgt>
<wgt id='1282'> +4.9779313E-01 </wgt>
<wgt id='1283'> +4.9756743E-01 </wgt>
<wgt id='1284'> +4.8311671E-01 </wgt>
<wgt id='1285'> +5.1476999E-01 </wgt>
<wgt id='1286'> +4.8402143E-01 </wgt>
<wgt id='1287'> +4.9924132E-01 </wgt>
<wgt id='1288'> +4.9608631E-01 </wgt>
<wgt id='1289'> +4.9872651E-01 </wgt>
<wgt id='1290'> +4.9875531E-01 </wgt>
<wgt id='1291'> +4.9745713E-01 </wgt>
<wgt id='1292'> +4.9952441E-01 </wgt>
<wgt id='1293'> +4.9458767E-01 </wgt>
<wgt id='1294'> +4.9301973E-01 </wgt>
<wgt id='1295'> +5.0066391E-01 </wgt>
<wgt id='1296'> +4.0234339E-01 </wgt>
<wgt id='1297'> +4.0289868E-01 </wgt>
<wgt id='1298'> +4.0188290E-01 </wgt>
<wgt id='1299'> +4.0240183E-01 </wgt>
<wgt id='1300'> +4.0226380E-01 </wgt>
<wgt id='1301'> +4.0247382E-01 </wgt>
<wgt id='1302'> +4.0213019E-01 </wgt>
<wgt id='1303'> +4.0277767E-01 </wgt>
<wgt id='1304'> +4.0205838E-01 </wgt>
<wgt id='1305'> +4.0170567E-01 </wgt>
<wgt id='1306'> +4.0325111E-01 </wgt>
<wgt id='1307'> +3.9971601E-01 </wgt>
<wgt id='1308'> +4.0395265E-01 </wgt>
<wgt id='1309'> +3.9493099E-01 </wgt>
<wgt id='1310'> +4.1255966E-01 </wgt>
<wgt id='1311'> +3.9472093E-01 </wgt>
<wgt id='1312'> +4.0507161E-01 </wgt>
<wgt id='1313'> +4.0594462E-01 </wgt>
<wgt id='1314'> +3.9724455E-01 </wgt>
<wgt id='1315'> +4.1782328E-01 </wgt>
<wgt id='1316'> +3.8839374E-01 </wgt>
<wgt id='1317'> +4.0148676E-01 </wgt>
<wgt id='1318'> +4.0384120E-01 </wgt>
<wgt id='1319'> +4.0525091E-01 </wgt>
<wgt id='1320'> +3.9995511E-01 </wgt>
<wgt id='1321'> +4.1130643E-01 </wgt>
<wgt id='1322'> +3.9796099E-01 </wgt>
<wgt id='1323'> +3.8165701E-01 </wgt>
<wgt id='1324'> +4.2888250E-01 </wgt>
<wgt id='1325'> +4.0758137E-01 </wgt>
<wgt id='1326'> +3.9544738E-01 </wgt>
<wgt id='1327'> +3.9862661E-01 </wgt>
<wgt id='1328'> +4.0380826E-01 </wgt>
<wgt id='1329'> +3.9872773E-01 </wgt>
<wgt id='1330'> +4.0458511E-01 </wgt>
<wgt id='1331'> +3.9933066E-01 </wgt>
<wgt id='1332'> +4.0438951E-01 </wgt>
<wgt id='1333'> +4.0478489E-01 </wgt>
<wgt id='1334'> +3.9788486E-01 </wgt>
<wgt id='1335'> +4.0348924E-01 </wgt>
<wgt id='1336'> +4.0213232E-01 </wgt>
<wgt id='1337'> +4.0234339E-01 </wgt>
<wgt id='1338'> +4.0186610E-01 </wgt>
<wgt id='1339'> +4.0209891E-01 </wgt>
<wgt id='1340'> +4.0224361E-01 </wgt>
<wgt id='1341'> +4.0260680E-01 </wgt>
<wgt id='1342'> +4.0269328E-01 </wgt>
<wgt id='1343'> +4.0282408E-01 </wgt>
<wgt id='1344'> +3.9061404E-01 </wgt>
<wgt id='1345'> +3.9089071E-01 </wgt>
<wgt id='1346'> +3.9034243E-01 </wgt>
<wgt id='1347'> +3.9009939E-01 </wgt>
<wgt id='1348'> +3.9094097E-01 </wgt>
<wgt id='1349'> +3.9066761E-01 </wgt>
<wgt id='1350'> +3.9051196E-01 </wgt>
<wgt id='1351'> +3.9044753E-01 </wgt>
<wgt id='1352'> +3.9086044E-01 </wgt>
<wgt id='1353'> +3.8985198E-01 </wgt>
<wgt id='1354'> +3.9112722E-01 </wgt>
<wgt id='1355'> +4.0061469E-01 </wgt>
<wgt id='1356'> +3.8294649E-01 </wgt>
<wgt id='1357'> +3.9384586E-01 </wgt>
<wgt id='1358'> +3.8865100E-01 </wgt>
<wgt id='1359'> +3.9344001E-01 </wgt>
<wgt id='1360'> +3.8344507E-01 </wgt>
<wgt id='1361'> +4.0287125E-01 </wgt>
<wgt id='1362'> +3.8106361E-01 </wgt>
<wgt id='1363'> +3.7745883E-01 </wgt>
<wgt id='1364'> +4.0751972E-01 </wgt>
<wgt id='1365'> +3.9276814E-01 </wgt>
<wgt id='1366'> +3.8937150E-01 </wgt>
<wgt id='1367'> +3.9814676E-01 </wgt>
<wgt id='1368'> +3.8681185E-01 </wgt>
<wgt id='1369'> +3.9753587E-01 </wgt>
<wgt id='1370'> +3.8440388E-01 </wgt>
<wgt id='1371'> +4.0511425E-01 </wgt>
<wgt id='1372'> +3.7367710E-01 </wgt>
<wgt id='1373'> +3.9424324E-01 </wgt>
<wgt id='1374'> +3.8760164E-01 </wgt>
<wgt id='1375'> +3.8425852E-01 </wgt>
<wgt id='1376'> +3.9250269E-01 </wgt>
<wgt id='1377'> +3.9148994E-01 </wgt>
<wgt id='1378'> +3.8896718E-01 </wgt>
<wgt id='1379'> +3.9368196E-01 </wgt>
<wgt id='1380'> +3.8799398E-01 </wgt>
<wgt id='1381'> +3.8642912E-01 </wgt>
<wgt id='1382'> +3.9221188E-01 </wgt>
<wgt id='1383'> +3.8992272E-01 </wgt>
<wgt id='1384'> +3.9446360E-01 </wgt>
<wgt id='1385'> +3.9061404E-01 </wgt>
<wgt id='1386'> +3.9043543E-01 </wgt>
<wgt id='1387'> +3.9046865E-01 </wgt>
<wgt id='1388'> +3.9053541E-01 </wgt>
<wgt id='1389'> +3.9062671E-01 </wgt>
<wgt id='1390'> +3.9072921E-01 </wgt>
<wgt id='1391'> +3.9087103E-01 </wgt>
<wgt id='1392'> +4.8273883E-01 </wgt>
<wgt id='1393'> +4.8276551E-01 </wgt>
<wgt id='1394'> +4.8274766E-01 </wgt>
<wgt id='1395'> +4.8286013E-01 </wgt>
<wgt id='1396'> +4.8266728E-01 </wgt>
<wgt id='1397'> +4.8385363E-01 </wgt>
<wgt id='1398'> +4.8173142E-01 </wgt>
<wgt id='1399'> +4.8244376E-01 </wgt>
<wgt id='1400'> +4.8310206E-01 </wgt>
<wgt id='1401'> +4.8483389E-01 </wgt>
<wgt id='1402'> +4.8018613E-01 </wgt>
<wgt id='1403'> +4.7966390E-01 </wgt>
<wgt id='1404'> +4.8890912E-01 </wgt>
<wgt id='1405'> +4.8618815E-01 </wgt>
<wgt id='1406'> +4.7802296E-01 </wgt>
<wgt id='1407'> +4.9820684E-01 </wgt>
<wgt id='1408'> +4.7218263E-01 </wgt>
<wgt id='1409'> +4.8842605E-01 </wgt>
<wgt id='1410'> +4.7638296E-01 </wgt>
<wgt id='1411'> +4.7779379E-01 </wgt>
<wgt id='1412'> +4.8652068E-01 </wgt>
<wgt id='1413'> +4.5849906E-01 </wgt>
<wgt id='1414'> +5.0796586E-01 </wgt>
<wgt id='1415'> +4.6926864E-01 </wgt>
<wgt id='1416'> +4.9512714E-01 </wgt>
<wgt id='1417'> +4.8955706E-01 </wgt>
<wgt id='1418'> +4.7403578E-01 </wgt>
<wgt id='1419'> +4.7332455E-01 </wgt>
<wgt id='1420'> +4.7839813E-01 </wgt>
<wgt id='1421'> +4.8298218E-01 </wgt>
<wgt id='1422'> +4.8151545E-01 </wgt>
<wgt id='1423'> +4.8886213E-01 </wgt>
<wgt id='1424'> +4.7842808E-01 </wgt>
<wgt id='1425'> +4.7689025E-01 </wgt>
<wgt id='1426'> +4.9072329E-01 </wgt>
<wgt id='1427'> +4.8122549E-01 </wgt>
<wgt id='1428'> +4.8661574E-01 </wgt>
<wgt id='1429'> +4.7087009E-01 </wgt>
<wgt id='1430'> +4.8094309E-01 </wgt>
<wgt id='1431'> +4.8261504E-01 </wgt>
<wgt id='1432'> +4.8273279E-01 </wgt>
<wgt id='1433'> +4.8628131E-01 </wgt>
<wgt id='1434'> +4.7787033E-01 </wgt>
<wgt id='1435'> +4.7751220E-01 </wgt>
<wgt id='1436'> +4.8618550E-01 </wgt>
<wgt id='1437'> +4.7881994E-01 </wgt>
<wgt id='1438'> +4.9291932E-01 </wgt>
<wgt id='1439'> +4.8598768E-01 </wgt>
<wgt id='1440'> +4.7516915E-01 </wgt>
<wgt id='1441'> +4.8220609E-01 </wgt>
<wgt id='1442'> +4.8241902E-01 </wgt>
<wgt id='1443'> +4.7733749E-01 </wgt>
<wgt id='1444'> +4.7737097E-01 </wgt>
<wgt id='1445'> +4.7729612E-01 </wgt>
<wgt id='1446'> +4.7744864E-01 </wgt>
<wgt id='1447'> +4.7726851E-01 </wgt>
<wgt id='1448'> +4.7845588E-01 </wgt>
<wgt id='1449'> +4.7632698E-01 </wgt>
<wgt id='1450'> +4.7694807E-01 </wgt>
<wgt id='1451'> +4.7777793E-01 </wgt>
<wgt id='1452'> +4.7988522E-01 </wgt>
<wgt id='1453'> +4.7489227E-01 </wgt>
<wgt id='1454'> +4.7496010E-01 </wgt>
<wgt id='1455'> +4.8255920E-01 </wgt>
<wgt id='1456'> +4.8250688E-01 </wgt>
<wgt id='1457'> +4.6818026E-01 </wgt>
<wgt id='1458'> +4.9319390E-01 </wgt>
<wgt id='1459'> +4.6843133E-01 </wgt>
<wgt id='1460'> +4.8249061E-01 </wgt>
<wgt id='1461'> +4.7134314E-01 </wgt>
<wgt id='1462'> +4.7103321E-01 </wgt>
<wgt id='1463'> +4.8279143E-01 </wgt>
<wgt id='1464'> +4.5596019E-01 </wgt>
<wgt id='1465'> +5.0490980E-01 </wgt>
<wgt id='1466'> +4.5786780E-01 </wgt>
<wgt id='1467'> +4.8914996E-01 </wgt>
<wgt id='1468'> +4.7243430E-01 </wgt>
<wgt id='1469'> +4.8198111E-01 </wgt>
<wgt id='1470'> +4.6916968E-01 </wgt>
<wgt id='1471'> +4.7387182E-01 </wgt>
<wgt id='1472'> +4.7689015E-01 </wgt>
<wgt id='1473'> +4.7694114E-01 </wgt>
<wgt id='1474'> +4.7900624E-01 </wgt>
<wgt id='1475'> +4.7564420E-01 </wgt>
<wgt id='1476'> +4.6825260E-01 </wgt>
<wgt id='1477'> +4.8652674E-01 </wgt>
<wgt id='1478'> +4.7571614E-01 </wgt>
<wgt id='1479'> +4.8143831E-01 </wgt>
<wgt id='1480'> +4.6443286E-01 </wgt>
<wgt id='1481'> +4.7207204E-01 </wgt>
<wgt id='1482'> +4.7709747E-01 </wgt>
<wgt id='1483'> +4.7750089E-01 </wgt>
<wgt id='1484'> +4.7961429E-01 </wgt>
<wgt id='1485'> +4.7327625E-01 </wgt>
<wgt id='1486'> +4.7088048E-01 </wgt>
<wgt id='1487'> +4.8099909E-01 </wgt>
<wgt id='1488'> +4.7362604E-01 </wgt>
<wgt id='1489'> +4.8644931E-01 </wgt>
<wgt id='1490'> +4.8044563E-01 </wgt>
<wgt id='1491'> +4.7021079E-01 </wgt>
<wgt id='1492'> +4.7637687E-01 </wgt>
<wgt id='1493'> +4.7702201E-01 </wgt>
<wgt id='1494'> +4.6092427E-01 </wgt>
<wgt id='1495'> +4.5318432E-01 </wgt>
<wgt id='1496'> +4.5617191E-01 </wgt>
<wgt id='1497'> +4.5811078E-01 </wgt>
<wgt id='1498'> +4.6149453E-01 </wgt>
<wgt id='1499'> +4.6022229E-01 </wgt>
<wgt id='1500'> +4.6044282E-01 </wgt>
<wgt id='1501'> +4.6028962E-01 </wgt>
<wgt id='1502'> +4.6048843E-01 </wgt>
<wgt id='1503'> +4.6052198E-01 </wgt>
<wgt id='1504'> +4.6037204E-01 </wgt>
<wgt id='1505'> +4.5992393E-01 </wgt>
<wgt id='1506'> +4.6002689E-01 </wgt>
<wgt id='1507'> +4.6006639E-01 </wgt>
<wgt id='1508'> +4.6022229E-01 </wgt>
<wgt id='1509'> +4.6047214E-01 </wgt>
<wgt id='1510'> +4.6031577E-01 </wgt>
<wgt id='1511'> +4.6014292E-01 </wgt>
<wgt id='1512'> +4.5977000E-01 </wgt>
<wgt id='1513'> +4.2996385E-01 </wgt>
<wgt id='1514'> +4.2980845E-01 </wgt>
<wgt id='1515'> +4.3017738E-01 </wgt>
<wgt id='1516'> +4.3073203E-01 </wgt>
<wgt id='1517'> +4.2920190E-01 </wgt>
<wgt id='1518'> +4.3042194E-01 </wgt>
<wgt id='1519'> +4.2975604E-01 </wgt>
<wgt id='1520'> +4.3176426E-01 </wgt>
<wgt id='1521'> +4.2815918E-01 </wgt>
<wgt id='1522'> +4.3351623E-01 </wgt>
<wgt id='1523'> +4.2658607E-01 </wgt>
<wgt id='1524'> +4.3727090E-01 </wgt>
<wgt id='1525'> +4.2677438E-01 </wgt>
<wgt id='1526'> +4.2631556E-01 </wgt>
<wgt id='1527'> +4.3435688E-01 </wgt>
<wgt id='1528'> +4.4363424E-01 </wgt>
<wgt id='1529'> +4.1527801E-01 </wgt>
<wgt id='1530'> +4.1224945E-01 </wgt>
<wgt id='1531'> +4.3994414E-01 </wgt>
<wgt id='1532'> +4.3916535E-01 </wgt>
<wgt id='1533'> +4.1728095E-01 </wgt>
<wgt id='1534'> +4.4634976E-01 </wgt>
<wgt id='1535'> +4.1838684E-01 </wgt>
<wgt id='1536'> +4.3965909E-01 </wgt>
<wgt id='1537'> +4.2073856E-01 </wgt>
<wgt id='1538'> +4.3383339E-01 </wgt>
<wgt id='1539'> +4.1979766E-01 </wgt>
<wgt id='1540'> +4.1964139E-01 </wgt>
<wgt id='1541'> +4.2979210E-01 </wgt>
<wgt id='1542'> +4.2738128E-01 </wgt>
<wgt id='1543'> +4.3643489E-01 </wgt>
<wgt id='1544'> +4.3416790E-01 </wgt>
<wgt id='1545'> +4.2118723E-01 </wgt>
<wgt id='1546'> +4.3255933E-01 </wgt>
<wgt id='1547'> +4.2518506E-01 </wgt>
<wgt id='1548'> +4.4092908E-01 </wgt>
<wgt id='1549'> +4.2557985E-01 </wgt>
<wgt id='1550'> +4.2745564E-01 </wgt>
<wgt id='1551'> +4.3433478E-01 </wgt>
<wgt id='1552'> +4.2987480E-01 </wgt>
<wgt id='1553'> +4.2995063E-01 </wgt>
<wgt id='1554'> +4.2826469E-01 </wgt>
<wgt id='1555'> +4.3125376E-01 </wgt>
<wgt id='1556'> +4.2939511E-01 </wgt>
<wgt id='1557'> +4.3085467E-01 </wgt>
<wgt id='1558'> +4.2857572E-01 </wgt>
<wgt id='1559'> +4.3006411E-01 </wgt>
<wgt id='1560'> +4.4201486E-01 </wgt>
<wgt id='1561'> +4.2499223E-01 </wgt>
<wgt id='1562'> +4.2587393E-01 </wgt>
<wgt id='1563'> +4.3272390E-01 </wgt>
<wgt id='1564'> +4.2996385E-01 </wgt>
<wgt id='1565'> +4.3042895E-01 </wgt>
<wgt id='1566'> +4.2565766E-01 </wgt>
<wgt id='1567'> +4.2855936E-01 </wgt>
<wgt id='1568'> +4.2484640E-01 </wgt>
<wgt id='1569'> +4.2572471E-01 </wgt>
<wgt id='1570'> +4.2642625E-01 </wgt>
<wgt id='1571'> +4.2702220E-01 </wgt>
<wgt id='1572'> +4.2793868E-01 </wgt>
<wgt id='1573'> +4.2926241E-01 </wgt>
<wgt id='1574'> +4.2969784E-01 </wgt>
<wgt id='1575'> +4.3034763E-01 </wgt>
<wgt id='1576'> +4.2855936E-01 </wgt>
<wgt id='1577'> +4.2887476E-01 </wgt>
<wgt id='1578'> +4.2878377E-01 </wgt>
<wgt id='1579'> +4.2845098E-01 </wgt>
<wgt id='1580'> +4.2828907E-01 </wgt>
<wgt id='1581'> +4.5041482E-01 </wgt>
<wgt id='1582'> +4.5325118E-01 </wgt>
<wgt id='1583'> +4.4402638E-01 </wgt>
<wgt id='1584'> +4.4733434E-01 </wgt>
<wgt id='1585'> +4.4566103E-01 </wgt>
<wgt id='1586'> +4.5222165E-01 </wgt>
<wgt id='1587'> +4.6089415E-01 </wgt>
<wgt id='1588'> +4.5447245E-01 </wgt>
<wgt id='1589'> +4.4684395E-01 </wgt>
<wgt id='1590'> +4.4032852E-01 </wgt>
<wgt id='1591'> +4.5376023E-01 </wgt>
<wgt id='1592'> +4.5102982E-01 </wgt>
<wgt id='1593'> +4.2538748E-01 </wgt>
<wgt id='1594'> +4.5276814E-01 </wgt>
<wgt id='1595'> +4.5427630E-01 </wgt>
<wgt id='1596'> +4.5484135E-01 </wgt>
<wgt id='1597'> +4.5013070E-01 </wgt>
<wgt id='1598'> +4.4156861E-01 </wgt>
<wgt id='1599'> +4.4625241E-01 </wgt>
<wgt id='1600'> +4.4828212E-01 </wgt>
<wgt id='1601'> +4.5364464E-01 </wgt>
<wgt id='1602'> +4.5044068E-01 </wgt>
<wgt id='1603'> +4.5118087E-01 </wgt>
<wgt id='1604'> +4.7632543E-01 </wgt>
<wgt id='1605'> +4.4621688E-01 </wgt>
<wgt id='1606'> +4.4969506E-01 </wgt>
<wgt id='1607'> +4.5127502E-01 </wgt>
<wgt id='1608'> +4.5076462E-01 </wgt>
<wgt id='1609'> +4.4789390E-01 </wgt>
<wgt id='1610'> +4.4737329E-01 </wgt>
<wgt id='1611'> +4.4933257E-01 </wgt>
<wgt id='1612'> +3.8511359E-01 </wgt>
<wgt id='1613'> +3.8014671E-01 </wgt>
<wgt id='1614'> +3.9314745E-01 </wgt>
<wgt id='1615'> +3.8617673E-01 </wgt>
<wgt id='1616'> +3.8293557E-01 </wgt>
<wgt id='1617'> +3.8328803E-01 </wgt>
<wgt id='1618'> +3.8711930E-01 </wgt>
<wgt id='1619'> +3.8606680E-01 </wgt>
<wgt id='1620'> +3.9011927E-01 </wgt>
<wgt id='1621'> +3.8656496E-01 </wgt>
<wgt id='1622'> +3.8488443E-01 </wgt>
<wgt id='1623'> +3.8394270E-01 </wgt>
<wgt id='1624'> +3.8727911E-01 </wgt>
<wgt id='1625'> +3.8029474E-01 </wgt>
<wgt id='1626'> +3.8764256E-01 </wgt>
<wgt id='1627'> +3.8615824E-01 </wgt>
<wgt id='1628'> +3.8773776E-01 </wgt>
<wgt id='1629'> +3.8518509E-01 </wgt>
<wgt id='1630'> +3.8517638E-01 </wgt>
<wgt id='1631'> +3.8656549E-01 </wgt>
<wgt id='1632'> +3.7946180E-01 </wgt>
<wgt id='1633'> +3.8248289E-01 </wgt>
<wgt id='1634'> +3.9001477E-01 </wgt>
<wgt id='1635'> +3.7776919E-01 </wgt>
<wgt id='1636'> +3.8785986E-01 </wgt>
<wgt id='1637'> +3.8029878E-01 </wgt>
<wgt id='1638'> +3.8677772E-01 </wgt>
<wgt id='1639'> +3.9294658E-01 </wgt>
<wgt id='1640'> +3.7990955E-01 </wgt>
<wgt id='1641'> +3.8617100E-01 </wgt>
<wgt id='1642'> +3.9982364E-01 </wgt>
<wgt id='1643'> +3.6843582E-01 </wgt>
<wgt id='1644'> +3.5897319E-01 </wgt>
<wgt id='1645'> +4.3135280E-01 </wgt>
<wgt id='1646'> +3.7250649E-01 </wgt>
<wgt id='1647'> +4.1251513E-01 </wgt>
<wgt id='1648'> +3.8335389E-01 </wgt>
<wgt id='1649'> +4.0237232E-01 </wgt>
<wgt id='1650'> +3.9015107E-01 </wgt>
<wgt id='1651'> +3.9174442E-01 </wgt>
<wgt id='1652'> +3.8442204E-01 </wgt>
<wgt id='1653'> +3.9272286E-01 </wgt>
<wgt id='1654'> +3.8916314E-01 </wgt>
<wgt id='1655'> +3.8886404E-01 </wgt>
<wgt id='1656'> +3.8383312E-01 </wgt>
<wgt id='1657'> +3.8837871E-01 </wgt>
<wgt id='1658'> +3.9326151E-01 </wgt>
<wgt id='1659'> +3.8989621E-01 </wgt>
<wgt id='1660'> +3.8530223E-01 </wgt>
<wgt id='1661'> +3.8473831E-01 </wgt>
<wgt id='1662'> +3.8946440E-01 </wgt>
<wgt id='1663'> +3.8833841E-01 </wgt>
<wgt id='1664'> +3.8405321E-01 </wgt>
<wgt id='1665'> +3.8403565E-01 </wgt>
<wgt id='1666'> +3.8835107E-01 </wgt>
<wgt id='1667'> +3.7821223E-01 </wgt>
<wgt id='1668'> +3.7470213E-01 </wgt>
<wgt id='1669'> +3.8486267E-01 </wgt>
<wgt id='1670'> +3.9126739E-01 </wgt>
<wgt id='1671'> +3.8448009E-01 </wgt>
<wgt id='1672'> +3.8565605E-01 </wgt>
<wgt id='1673'> +3.8483833E-01 </wgt>
<wgt id='1674'> +3.8501152E-01 </wgt>
<wgt id='1675'> +3.9227244E-01 </wgt>
<wgt id='1676'> +3.8710677E-01 </wgt>
<wgt id='1677'> +3.8493083E-01 </wgt>
<wgt id='1678'> +3.8603820E-01 </wgt>
<wgt id='1679'> +3.8630532E-01 </wgt>
<wgt id='1680'> +3.9451114E-01 </wgt>
<wgt id='1681'> +3.7997572E-01 </wgt>
<wgt id='1682'> +3.9325560E-01 </wgt>
<wgt id='1683'> +3.9340394E-01 </wgt>
<wgt id='1684'> +3.8747487E-01 </wgt>
<wgt id='1685'> +3.8576609E-01 </wgt>
<wgt id='1686'> +3.8150515E-01 </wgt>
<wgt id='1687'> +3.9303178E-01 </wgt>
<wgt id='1688'> +3.8511535E-01 </wgt>
<wgt id='1689'> +3.7765325E-01 </wgt>
<wgt id='1690'> +3.8121576E-01 </wgt>
<wgt id='1691'> +3.8072900E-01 </wgt>
<wgt id='1692'> +3.8460557E-01 </wgt>
<wgt id='1693'> +3.8298192E-01 </wgt>
<wgt id='1694'> +3.8560890E-01 </wgt>
<wgt id='1695'> +3.8397876E-01 </wgt>
<wgt id='1696'> +3.8237809E-01 </wgt>
<wgt id='1697'> +3.8541951E-01 </wgt>
<wgt id='1698'> +3.8571212E-01 </wgt>
<wgt id='1699'> +3.8222056E-01 </wgt>
<wgt id='1700'> +3.8560051E-01 </wgt>
<wgt id='1701'> +3.8698698E-01 </wgt>
<wgt id='1702'> +3.8464613E-01 </wgt>
<wgt id='1703'> +3.8439625E-01 </wgt>
<wgt id='1704'> +3.8834558E-01 </wgt>
<wgt id='1705'> +3.7985213E-01 </wgt>
<wgt id='1706'> +3.8566244E-01 </wgt>
<wgt id='1707'> +3.8733078E-01 </wgt>
<wgt id='1708'> +3.8427078E-01 </wgt>
<wgt id='1709'> +3.8508461E-01 </wgt>
<wgt id='1710'> +3.8196898E-01 </wgt>
<wgt id='1711'> +3.8389281E-01 </wgt>
<wgt id='1712'> +3.8488652E-01 </wgt>
<wgt id='1713'> +3.8234464E-01 </wgt>
<wgt id='1714'> +3.8912527E-01 </wgt>
<wgt id='1715'> +3.3157650E-01 </wgt>
<wgt id='1716'> +2.8426171E-01 </wgt>
<wgt id='1717'> +3.5001452E-01 </wgt>
<wgt id='1718'> +2.3327902E-01 </wgt>
<wgt id='1719'> +2.7181905E-01 </wgt>
<wgt id='1720'> +3.6644667E-01 </wgt>
<wgt id='1721'> +3.3587404E-01 </wgt>
<wgt id='1722'> +4.3984651E-01 </wgt>
<wgt id='1723'> +3.1609089E-01 </wgt>
<wgt id='1724'> +3.3473361E-01 </wgt>
<wgt id='1725'> +2.9938559E-01 </wgt>
<wgt id='1726'> +3.9704188E-01 </wgt>
<wgt id='1727'> +3.9657092E-01 </wgt>
<wgt id='1728'> +3.2457443E-01 </wgt>
<wgt id='1729'> +2.6635446E-01 </wgt>
<wgt id='1730'> +2.3593990E-01 </wgt>
<wgt id='1731'> +2.4788721E-01 </wgt>
<wgt id='1732'> +2.7020664E-01 </wgt>
<wgt id='1733'> +2.9013665E-01 </wgt>
<wgt id='1734'> +2.7963767E-01 </wgt>
<wgt id='1735'> +3.5306545E-01 </wgt>
<wgt id='1736'> +1.8786838E-01 </wgt>
<wgt id='1737'> +3.2654921E-01 </wgt>
<wgt id='1738'> +3.6767504E-01 </wgt>
<wgt id='1739'> +3.0098875E-01 </wgt>
<wgt id='1740'> +3.2221173E-01 </wgt>
<wgt id='1741'> +1.3807830E-01 </wgt>
<wgt id='1742'> +3.5614280E-01 </wgt>
<wgt id='1743'> +3.2571029E-01 </wgt>
<wgt id='1744'> +3.4660990E-01 </wgt>
<wgt id='1745'> +2.8966403E-01 </wgt>
<wgt id='1746'> +2.6399937E-01 </wgt>
<wgt id='1747'> +2.8573151E-01 </wgt>
<wgt id='1748'> +3.1870166E-01 </wgt>
<wgt id='1749'> +2.9000781E-01 </wgt>
<wgt id='1750'> +4.6050644E-01 </wgt>
<wgt id='1751'> +2.8831289E-01 </wgt>
<wgt id='1752'> +2.9296994E-01 </wgt>
<wgt id='1753'> +5.8720757E-01 </wgt>
<wgt id='1754'> +3.3345945E-01 </wgt>
<wgt id='1755'> +2.9520394E-01 </wgt>
<wgt id='1756'> +3.6523059E-01 </wgt>
<wgt id='1757'> +4.9202166E-01 </wgt>
<wgt id='1758'> +2.6162582E-01 </wgt>
<wgt id='1759'> +2.9159723E-01 </wgt>
<wgt id='1760'> +2.9200006E-01 </wgt>
<wgt id='1761'> +3.3258824E-01 </wgt>
<wgt id='1762'> +3.9657092E-01 </wgt>
<wgt id='1763'> +3.5249006E-01 </wgt>
<wgt id='1764'> +4.1935447E-01 </wgt>
<wgt id='1765'> +4.1281356E-01 </wgt>
<wgt id='1766'> +3.0551071E-01 </wgt>
<wgt id='1767'> +3.5161968E-01 </wgt>
<wgt id='1768'> +3.9334605E-01 </wgt>
<wgt id='1769'> +4.2211748E-01 </wgt>
<wgt id='1770'> +4.5263440E-01 </wgt>
<wgt id='1771'> +3.4852189E-01 </wgt>
<wgt id='1772'> +3.0748779E-01 </wgt>
<wgt id='1773'> +4.0058416E-01 </wgt>
<wgt id='1774'> +3.8379941E-01 </wgt>
<wgt id='1775'> +3.4419018E-01 </wgt>
<wgt id='1776'> +4.1831561E-01 </wgt>
<wgt id='1777'> +3.6341246E-01 </wgt>
<wgt id='1778'> +4.0726318E-01 </wgt>
<wgt id='1779'> +3.9574598E-01 </wgt>
<wgt id='1780'> +4.9829293E-01 </wgt>
<wgt id='1781'> +3.1970979E-01 </wgt>
<wgt id='1782'> +3.2398438E-01 </wgt>
<wgt id='1783'> +2.8200182E-01 </wgt>
<wgt id='1784'> +2.2557049E-01 </wgt>
<wgt id='1785'> +4.9134689E-01 </wgt>
<wgt id='1786'> +3.4551981E-01 </wgt>
<wgt id='1787'> +3.1119682E-01 </wgt>
<wgt id='1788'> +4.0225845E-01 </wgt>
<wgt id='1789'> +2.8898309E-01 </wgt>
<wgt id='1790'> +3.6589038E-01 </wgt>
<wgt id='1791'> +2.2861266E-01 </wgt>
<wgt id='1792'> +3.2969433E-01 </wgt>
<wgt id='1793'> +3.5734259E-01 </wgt>
<wgt id='1794'> +3.3730621E-01 </wgt>
<wgt id='1795'> +2.7745342E-01 </wgt>
<wgt id='1796'> +3.4473218E-01 </wgt>
<wgt id='1797'> +2.9813629E-01 </wgt>
<wgt id='1798'> +3.8888293E-01 </wgt>
<wgt id='1799'> +3.1502489E-01 </wgt>
<wgt id='1800'> +2.2960397E-01 </wgt>
<wgt id='1801'> +3.2089560E-01 </wgt>
<wgt id='1802'> +2.8192278E-01 </wgt>
<wgt id='1803'> +2.4309913E-01 </wgt>
<wgt id='1804'> +3.6617625E-01 </wgt>
<wgt id='1805'> +2.8054328E-01 </wgt>
<wgt id='1806'> +3.6139244E-01 </wgt>
<wgt id='1807'> +3.2457235E-01 </wgt>
<wgt id='1808'> +3.3707114E-01 </wgt>
<wgt id='1809'> +3.3096262E-01 </wgt>
<wgt id='1810'> +1.9134767E-01 </wgt>
<wgt id='1811'> +3.1632073E-01 </wgt>
<wgt id='1812'> +2.6874366E-01 </wgt>
<wgt id='1813'> +3.3104067E-01 </wgt>
<wgt id='1814'> +3.0033726E-01 </wgt>
<wgt id='1815'> +3.6283423E-01 </wgt>
<wgt id='1816'> +4.3014023E-01 </wgt>
<wgt id='1817'> +4.3757730E-01 </wgt>
<wgt id='1818'> +4.3342634E-01 </wgt>
<wgt id='1819'> +3.9991842E-01 </wgt>
<wgt id='1820'> +4.2591834E-01 </wgt>
<wgt id='1821'> +3.4281901E-01 </wgt>
<wgt id='1822'> +4.4411016E-01 </wgt>
<wgt id='1823'> +4.1691991E-01 </wgt>
<wgt id='1824'> +4.5234983E-01 </wgt>
<wgt id='1825'> +3.5756922E-01 </wgt>
<wgt id='1826'> +4.7060596E-01 </wgt>
<wgt id='1827'> +5.1825912E-01 </wgt>
<wgt id='1828'> +4.4118939E-01 </wgt>
<wgt id='1829'> +4.2958398E-01 </wgt>
<wgt id='1830'> +4.3873833E-01 </wgt>
<wgt id='1831'> +3.9491345E-01 </wgt>
<wgt id='1832'> +4.2400864E-01 </wgt>
<wgt id='1833'> +4.1922950E-01 </wgt>
<wgt id='1834'> +3.8072599E-01 </wgt>
<wgt id='1835'> +3.6889516E-01 </wgt>
<wgt id='1836'> +4.4106881E-01 </wgt>
<wgt id='1837'> +5.5036603E-01 </wgt>
<wgt id='1838'> +4.5952541E-01 </wgt>
<wgt id='1839'> +5.1047974E-01 </wgt>
<wgt id='1840'> +4.9473384E-01 </wgt>
<wgt id='1841'> +4.4313795E-01 </wgt>
<wgt id='1842'> +4.5591879E-01 </wgt>
<wgt id='1843'> +3.9661491E-01 </wgt>
<wgt id='1844'> +4.2383245E-01 </wgt>
<wgt id='1845'> +4.6190941E-01 </wgt>
<wgt id='1846'> +4.4868312E-01 </wgt>
<wgt id='1847'> +4.5013865E-01 </wgt>
<wgt id='1848'> +4.0424544E-01 </wgt>
<wgt id='1849'> +4.3686611E-01 </wgt>
<wgt id='1850'> +3.9574103E-01 </wgt>
<wgt id='1851'> +3.9725552E-01 </wgt>
<wgt id='1852'> +3.8194348E-01 </wgt>
<wgt id='1853'> +3.0743858E-01 </wgt>
<wgt id='1854'> +4.3490203E-01 </wgt>
<wgt id='1855'> +4.2843061E-01 </wgt>
<wgt id='1856'> +4.8191391E-01 </wgt>
<wgt id='1857'> +3.7408812E-01 </wgt>
<wgt id='1858'> +4.8144283E-01 </wgt>
<wgt id='1859'> +4.9148058E-01 </wgt>
<wgt id='1860'> +4.6261733E-01 </wgt>
<wgt id='1861'> +3.6514081E-01 </wgt>
<wgt id='1862'> +4.4556088E-01 </wgt>
<wgt id='1863'> +4.7470979E-01 </wgt>
<wgt id='1864'> +4.2312099E-01 </wgt>
<wgt id='1865'> +3.4216582E-01 </wgt>
<wgt id='1866'> +5.1706591E-01 </wgt>
<wgt id='1867'> +5.1094263E-01 </wgt>
<wgt id='1868'> +4.1287359E-01 </wgt>
<wgt id='1869'> +4.4957689E-01 </wgt>
<wgt id='1870'> +4.9075376E-01 </wgt>
<wgt id='1871'> +4.4089243E-01 </wgt>
<wgt id='1872'> +3.8415159E-01 </wgt>
<wgt id='1873'> +3.5816865E-01 </wgt>
<wgt id='1874'> +5.2429063E-01 </wgt>
<wgt id='1875'> +3.2830539E-01 </wgt>
<wgt id='1876'> +4.8489803E-01 </wgt>
<wgt id='1877'> +4.8541831E-01 </wgt>
<wgt id='1878'> +3.2231312E-01 </wgt>
<wgt id='1879'> +3.7776611E-01 </wgt>
<wgt id='1880'> +5.0859254E-01 </wgt>
<wgt id='1881'> +3.3948114E-01 </wgt>
<wgt id='1882'> +4.5989905E-01 </wgt>
<wgt id='1883'> +5.0437432E-01 </wgt>
<wgt id='1884'> +5.0172573E-01 </wgt>
<wgt id='1885'> +3.2308872E-01 </wgt>
<wgt id='1886'> +4.8898401E-01 </wgt>
<wgt id='1887'> +4.6443542E-01 </wgt>
<wgt id='1888'> +5.0626522E-01 </wgt>
<wgt id='1889'> +3.6580183E-01 </wgt>
<wgt id='1890'> +4.4250533E-01 </wgt>
<wgt id='1891'> +3.7076840E-01 </wgt>
<wgt id='1892'> +5.3667605E-01 </wgt>
<wgt id='1893'> +4.3629674E-01 </wgt>
<wgt id='1894'> +4.2942716E-01 </wgt>
<wgt id='1895'> +4.8580730E-01 </wgt>
<wgt id='1896'> +3.1309163E-01 </wgt>
<wgt id='1897'> +5.3376861E-01 </wgt>
<wgt id='1898'> +4.4633913E-01 </wgt>
<wgt id='1899'> +5.1650230E-01 </wgt>
<wgt id='1900'> +3.6459048E-01 </wgt>
<wgt id='1901'> +2.8027471E-01 </wgt>
<wgt id='1902'> +3.6467308E-01 </wgt>
<wgt id='1903'> +3.8503355E-01 </wgt>
<wgt id='1904'> +4.4344616E-01 </wgt>
<wgt id='1905'> +4.9467327E-01 </wgt>
<wgt id='1906'> +4.6984092E-01 </wgt>
<wgt id='1907'> +4.1710806E-01 </wgt>
<wgt id='1908'> +4.2644691E-01 </wgt>
<wgt id='1909'> +4.6035202E-01 </wgt>
<wgt id='1910'> +5.4449570E-01 </wgt>
<wgt id='1911'> +2.6528691E-01 </wgt>
<wgt id='1912'> +4.0770261E-01 </wgt>
<wgt id='1913'> +3.5623671E-01 </wgt>
<wgt id='1914'> +4.0019267E-01 </wgt>
<wgt id='1915'> +4.6325588E-01 </wgt>
<wgt id='1916'> +3.5020818E-01 </wgt>
<wgt id='1917'> +4.9088313E-01 </wgt>
<wgt id='1918'> +5.5682857E-01 </wgt>
<wgt id='1919'> +4.3014023E-01 </wgt>
<wgt id='1920'> +4.3757730E-01 </wgt>
<wgt id='1921'> +4.3342634E-01 </wgt>
<wgt id='1922'> +3.9991842E-01 </wgt>
<wgt id='1923'> +4.2591834E-01 </wgt>
<wgt id='1924'> +3.4281901E-01 </wgt>
<wgt id='1925'> +4.4411016E-01 </wgt>
<wgt id='1926'> +4.1691991E-01 </wgt>
<wgt id='1927'> +4.5234983E-01 </wgt>
<wgt id='1928'> +3.5756922E-01 </wgt>
<wgt id='1929'> +4.7060596E-01 </wgt>
<wgt id='1930'> +5.1825912E-01 </wgt>
<wgt id='1931'> +4.4118939E-01 </wgt>
<wgt id='1932'> +4.2958398E-01 </wgt>
<wgt id='1933'> +4.3873833E-01 </wgt>
<wgt id='1934'> +3.9491345E-01 </wgt>
<wgt id='1935'> +4.2400864E-01 </wgt>
<wgt id='1936'> +4.1922950E-01 </wgt>
<wgt id='1937'> +3.8072599E-01 </wgt>
<wgt id='1938'> +3.6889516E-01 </wgt>
<wgt id='1939'> +4.4106881E-01 </wgt>
<wgt id='1940'> +5.5036603E-01 </wgt>
<wgt id='1941'> +4.5952541E-01 </wgt>
<wgt id='1942'> +5.1047974E-01 </wgt>
<wgt id='1943'> +4.9473384E-01 </wgt>
<wgt id='1944'> +4.4313795E-01 </wgt>
<wgt id='1945'> +4.5591879E-01 </wgt>
<wgt id='1946'> +3.9661491E-01 </wgt>
<wgt id='1947'> +4.2383245E-01 </wgt>
<wgt id='1948'> +4.6190941E-01 </wgt>
<wgt id='1949'> +4.4868312E-01 </wgt>
<wgt id='1950'> +4.5013865E-01 </wgt>
<wgt id='1951'> +4.0424544E-01 </wgt>
<wgt id='1952'> +4.3686611E-01 </wgt>
<wgt id='1953'> +3.9574103E-01 </wgt>
<wgt id='1954'> +3.9725552E-01 </wgt>
<wgt id='1955'> +3.8194348E-01 </wgt>
<wgt id='1956'> +3.0743858E-01 </wgt>
<wgt id='1957'> +4.3490203E-01 </wgt>
<wgt id='1958'> +4.2843061E-01 </wgt>
<wgt id='1959'> +4.8191391E-01 </wgt>
<wgt id='1960'> +3.7408812E-01 </wgt>
<wgt id='1961'> +4.8144283E-01 </wgt>
<wgt id='1962'> +4.9148058E-01 </wgt>
<wgt id='1963'> +4.6261733E-01 </wgt>
<wgt id='1964'> +3.6514081E-01 </wgt>
<wgt id='1965'> +4.4556088E-01 </wgt>
<wgt id='1966'> +4.7470979E-01 </wgt>
<wgt id='1967'> +4.2312099E-01 </wgt>
<wgt id='1968'> +3.4216582E-01 </wgt>
<wgt id='1969'> +5.1706591E-01 </wgt>
<wgt id='1970'> +5.1094263E-01 </wgt>
<wgt id='1971'> +4.1287359E-01 </wgt>
<wgt id='1972'> +4.4957689E-01 </wgt>
<wgt id='1973'> +4.9075376E-01 </wgt>
<wgt id='1974'> +4.4089243E-01 </wgt>
<wgt id='1975'> +3.8415159E-01 </wgt>
<wgt id='1976'> +3.5816865E-01 </wgt>
<wgt id='1977'> +5.2429063E-01 </wgt>
<wgt id='1978'> +3.2830539E-01 </wgt>
<wgt id='1979'> +4.8489803E-01 </wgt>
<wgt id='1980'> +4.8541831E-01 </wgt>
<wgt id='1981'> +3.2231312E-01 </wgt>
<wgt id='1982'> +3.7776611E-01 </wgt>
<wgt id='1983'> +5.0859254E-01 </wgt>
<wgt id='1984'> +3.3948114E-01 </wgt>
<wgt id='1985'> +4.5989905E-01 </wgt>
<wgt id='1986'> +5.0437432E-01 </wgt>
<wgt id='1987'> +5.0172573E-01 </wgt>
<wgt id='1988'> +3.2308872E-01 </wgt>
<wgt id='1989'> +4.8898401E-01 </wgt>
<wgt id='1990'> +4.6443542E-01 </wgt>
<wgt id='1991'> +5.0626522E-01 </wgt>
<wgt id='1992'> +3.6580183E-01 </wgt>
<wgt id='1993'> +4.4250533E-01 </wgt>
<wgt id='1994'> +3.7076840E-01 </wgt>
<wgt id='1995'> +5.3667605E-01 </wgt>
<wgt id='1996'> +4.3629674E-01 </wgt>
<wgt id='1997'> +4.2942716E-01 </wgt>
<wgt id='1998'> +4.8580730E-01 </wgt>
<wgt id='1999'> +3.1309163E-01 </wgt>
<wgt id='2000'> +5.3376861E-01 </wgt>
<wgt id='2001'> +4.4633913E-01 </wgt>
<wgt id='2002'> +5.1650230E-01 </wgt>
<wgt id='2003'> +3.6459048E-01 </wgt>
<wgt id='2004'> +2.8027471E-01 </wgt>
<wgt id='2005'> +3.6467308E-01 </wgt>
<wgt id='2006'> +3.8503355E-01 </wgt>
<wgt id='2007'> +4.4344616E-01 </wgt>
<wgt id='2008'> +4.9467327E-01 </wgt>
<wgt id='2009'> +4.6984092E-01 </wgt>
<wgt id='2010'> +4.1710806E-01 </wgt>
<wgt id='2011'> +4.2644691E-01 </wgt>
<wgt id='2012'> +4.6035202E-01 </wgt>
<wgt id='2013'> +5.4449570E-01 </wgt>
<wgt id='2014'> +2.6528691E-01 </wgt>
<wgt id='2015'> +4.0770261E-01 </wgt>
<wgt id='2016'> +3.5623671E-01 </wgt>
<wgt id='2017'> +4.0019267E-01 </wgt>
<wgt id='2018'> +4.6325588E-01 </wgt>
<wgt id='2019'> +3.5020818E-01 </wgt>
<wgt id='2020'> +4.3899450E-01 </wgt>
<wgt id='2021'> +4.4183530E-01 </wgt>
<wgt id='2022'> +4.5753681E-01 </wgt>
</rwgt>
</event>
<event>
13      2 +3.9556008E-01 7.71991000e+01 7.81860800e-03 1.18253800e-01
       21 -1    0    0  502  503 +0.0000000000e+00 +0.0000000000e+00 +1.0027501001e+03 1.0027501001e+03 0.0000000000e+00 0.0000e+00 1.0000e+00
        3 -1    0    0  501    0 +0.0000000000e+00 +0.0000000000e+00 -3.6924858356e+02 3.6924859737e+02 1.0100000000e-01 0.0000e+00 -1.0000e+00
 -8000001  2    1    2    0  503 +3.7961044442e+00 -6.2689106935e+01 +6.9424232731e+02 9.1973725679e+02 5.9999989830e+02 0.0000e+00 0.0000e+00
        4  1    1    2  501    0 +4.1618636273e+00 +5.9143888385e+01 -2.5294462875e+02 2.5980361575e+02 1.2700000000e+00 0.0000e+00 -1.0000e+00
        5  1    1    2  502    0 -7.9579680715e+00 +3.5452185500e+00 +1.9220381798e+02 1.9245782493e+02 4.6700000000e+00 0.0000e+00 1.0000e+00
       -6  2    3    3    0  503 +1.9023678077e+02 -8.1494031713e+01 +9.7883364883e+01 2.8794941312e+02 1.7464936711e+02 0.0000e+00 0.0000e+00
       -5  1    6    6    0  503 +7.6300428239e+01 -7.1110320497e+01 -1.9922854852e+01 1.0628810882e+02 4.6700000000e+00 0.0000e+00 1.0000e+00
      -24  2    6    6    0    0 +1.1393635253e+02 -1.0383711217e+01 +1.1780621973e+02 1.8166130430e+02 7.7673741928e+01 0.0000e+00 0.0000e+00
      -16  1    8    8    0    0 +1.2482100051e+02 -1.2270736494e+01 +1.1491033375e+02 1.7010360944e+02 0.0000000000e+00 0.0000e+00 1.0000e+00
       15  1    8    8    0    0 -1.0884647979e+01 +1.8870252774e+00 +2.8958859886e+00 1.1557694861e+01 1.7770000000e+00 0.0000e+00 -1.0000e+00
       23  2    3    3    0    0 -1.8644067632e+02 +1.8804924778e+01 +5.9635896243e+02 6.3178784367e+02 9.1641237223e+01 0.0000e+00 0.0000e+00
        3  1   11   11  504    0 -9.8675339394e+00 -1.3326999412e+01 +1.1945776650e+01 2.0437439178e+01 1.0100000000e-01 0.0000e+00 -1.0000e+00
       -3  1   11   11    0  504 -1.7657314238e+02 +3.2131924190e+01 +5.8441318578e+02 6.1135040449e+02 1.0100000000e-01 0.0000e+00 1.0000e+00
<mgrwt>
<rscale>  1 0.67669553e+02</rscale>
<asrwt>0</asrwt>
<pdfrwt beam="1">  1       21 0.15426925e+00 0.77199096e+02</pdfrwt>
<pdfrwt beam="2">  1        3 0.56807476e-01 0.59316349e+02</pdfrwt>
<totfact> 0.62719386e+01</totfact>
</mgrwt>
<rwgt>
<wgt id='1001'> +3.9556008E-01 </wgt>
<wgt id='1002'> +2.4005799E-01 </wgt>
<wgt id='1003'> +2.3992639E-01 </wgt>
<wgt id='1004'> +2.8346610E-01 </wgt>
<wgt id='1005'> +1.9728018E-01 </wgt>
<wgt id='1006'> +3.5471438E-01 </wgt>
<wgt id='1007'> +2.2120844E-01 </wgt>
<wgt id='1008'> +2.2109243E-01 </wgt>
<wgt id='1009'> +2.5922139E-01 </wgt>
<wgt id='1010'> +1.8324704E-01 </wgt>
<wgt id='1011'> +4.4746989E-01 </wgt>
<wgt id='1012'> +2.6251795E-01 </wgt>
<wgt id='1013'> +2.6236646E-01 </wgt>
<wgt id='1014'> +3.1287296E-01 </wgt>
<wgt id='1015'> +2.1369834E-01 </wgt>
<wgt id='1016'> +3.6502415E-01 </wgt>
<wgt id='1017'> +2.2287249E-01 </wgt>
<wgt id='1018'> +2.2275229E-01 </wgt>
<wgt id='1019'> +2.6236646E-01 </wgt>
<wgt id='1020'> +1.8396236E-01 </wgt>
<wgt id='1021'> +3.2733160E-01 </wgt>
<wgt id='1022'> +2.0537236E-01 </wgt>
<wgt id='1023'> +2.0526647E-01 </wgt>
<wgt id='1024'> +2.3992639E-01 </wgt>
<wgt id='1025'> +1.7087656E-01 </wgt>
<wgt id='1026'> +4.1292669E-01 </wgt>
<wgt id='1027'> +2.4372456E-01 </wgt>
<wgt id='1028'> +2.4358608E-01 </wgt>
<wgt id='1029'> +2.8958443E-01 </wgt>
<wgt id='1030'> +1.9927218E-01 </wgt>
<wgt id='1031'> +4.2899578E-01 </wgt>
<wgt id='1032'> +2.5936685E-01 </wgt>
<wgt id='1033'> +2.5922139E-01 </wgt>
<wgt id='1034'> +3.0722836E-01 </wgt>
<wgt id='1035'> +2.1231450E-01 </wgt>
<wgt id='1036'> +3.8469749E-01 </wgt>
<wgt id='1037'> +2.3900116E-01 </wgt>
<wgt id='1038'> +2.3887279E-01 </wgt>
<wgt id='1039'> +2.8095127E-01 </wgt>
<wgt id='1040'> +1.9721193E-01 </wgt>
<wgt id='1041'> +4.8529340E-01 </wgt>
<wgt id='1042'> +2.8363336E-01 </wgt>
<wgt id='1043'> +2.8346610E-01 </wgt>
<wgt id='1044'> +3.3910031E-01 </wgt>
<wgt id='1045'> +2.2998386E-01 </wgt>
<wgt id='1046'> +3.9556008E-01 </wgt>
<wgt id='1047'> +3.9556008E-01 </wgt>
<wgt id='1048'> +3.9556008E-01 </wgt>
<wgt id='1049'> +3.9202521E-01 </wgt>
<wgt id='1050'> +3.9654213E-01 </wgt>
<wgt id='1051'> +3.9235884E-01 </wgt>
<wgt id='1052'> +3.9342500E-01 </wgt>
<wgt id='1053'> +3.9491219E-01 </wgt>
<wgt id='1054'> +3.9837764E-01 </wgt>
<wgt id='1055'> +3.9753417E-01 </wgt>
<wgt id='1056'> +4.0120607E-01 </wgt>
<wgt id='1057'> +3.9168260E-01 </wgt>
<wgt id='1058'> +3.9243677E-01 </wgt>
<wgt id='1059'> +3.9064185E-01 </wgt>
<wgt id='1060'> +3.9814545E-01 </wgt>
<wgt id='1061'> +3.9427875E-01 </wgt>
<wgt id='1062'> +3.9288274E-01 </wgt>
<wgt id='1063'> +3.8766656E-01 </wgt>
<wgt id='1064'> +3.9908900E-01 </wgt>
<wgt id='1065'> +3.9314043E-01 </wgt>
<wgt id='1066'> +3.9890122E-01 </wgt>
<wgt id='1067'> +3.9237242E-01 </wgt>
<wgt id='1068'> +4.0131698E-01 </wgt>
<wgt id='1069'> +3.9746377E-01 </wgt>
<wgt id='1070'> +3.9627391E-01 </wgt>
<wgt id='1071'> +3.9637603E-01 </wgt>
<wgt id='1072'> +3.9753090E-01 </wgt>
<wgt id='1073'> +3.9980874E-01 </wgt>
<wgt id='1074'> +3.9809441E-01 </wgt>
<wgt id='1075'> +3.9198096E-01 </wgt>
<wgt id='1076'> +3.9654548E-01 </wgt>
<wgt id='1077'> +3.9045063E-01 </wgt>
<wgt id='1078'> +3.9204258E-01 </wgt>
<wgt id='1079'> +3.8767641E-01 </wgt>
<wgt id='1080'> +3.9715245E-01 </wgt>
<wgt id='1081'> +3.9058230E-01 </wgt>
<wgt id='1082'> +3.9673064E-01 </wgt>
<wgt id='1083'> +3.9810120E-01 </wgt>
<wgt id='1084'> +3.9215887E-01 </wgt>
<wgt id='1085'> +3.9169184E-01 </wgt>
<wgt id='1086'> +3.9652996E-01 </wgt>
<wgt id='1087'> +3.9125679E-01 </wgt>
<wgt id='1088'> +3.9427792E-01 </wgt>
<wgt id='1089'> +3.9441338E-01 </wgt>
<wgt id='1090'> +3.9165814E-01 </wgt>
<wgt id='1091'> +3.9677449E-01 </wgt>
<wgt id='1092'> +4.0041475E-01 </wgt>
<wgt id='1093'> +3.9576005E-01 </wgt>
<wgt id='1094'> +3.9099626E-01 </wgt>
<wgt id='1095'> +3.9955004E-01 </wgt>
<wgt id='1096'> +3.9038618E-01 </wgt>
<wgt id='1097'> +4.0063406E-01 </wgt>
<wgt id='1098'> +3.9558068E-01 </wgt>
<wgt id='1099'> +3.9575908E-01 </wgt>
<wgt id='1100'> +3.9645678E-01 </wgt>
<wgt id='1101'> +3.9179038E-01 </wgt>
<wgt id='1102'> +3.9463573E-01 </wgt>
<wgt id='1103'> +3.9575199E-01 </wgt>
<wgt id='1104'> +3.9659839E-01 </wgt>
<wgt id='1105'> +3.9707091E-01 </wgt>
<wgt id='1106'> +3.9240485E-01 </wgt>
<wgt id='1107'> +3.9673367E-01 </wgt>
<wgt id='1108'> +3.9583079E-01 </wgt>
<wgt id='1109'> +3.9324344E-01 </wgt>
<wgt id='1110'> +3.9846011E-01 </wgt>
<wgt id='1111'> +3.9809863E-01 </wgt>
<wgt id='1112'> +3.9929980E-01 </wgt>
<wgt id='1113'> +3.9033569E-01 </wgt>
<wgt id='1114'> +3.9387694E-01 </wgt>
<wgt id='1115'> +3.9602092E-01 </wgt>
<wgt id='1116'> +3.9638997E-01 </wgt>
<wgt id='1117'> +3.9725436E-01 </wgt>
<wgt id='1118'> +3.9450613E-01 </wgt>
<wgt id='1119'> +3.9704461E-01 </wgt>
<wgt id='1120'> +3.9321502E-01 </wgt>
<wgt id='1121'> +3.9715353E-01 </wgt>
<wgt id='1122'> +3.9355783E-01 </wgt>
<wgt id='1123'> +3.9686842E-01 </wgt>
<wgt id='1124'> +3.9697495E-01 </wgt>
<wgt id='1125'> +3.9776127E-01 </wgt>
<wgt id='1126'> +3.9735926E-01 </wgt>
<wgt id='1127'> +3.9578209E-01 </wgt>
<wgt id='1128'> +3.9540049E-01 </wgt>
<wgt id='1129'> +3.9568361E-01 </wgt>
<wgt id='1130'> +3.9629448E-01 </wgt>
<wgt id='1131'> +3.9611625E-01 </wgt>
<wgt id='1132'> +3.9607377E-01 </wgt>
<wgt id='1133'> +3.9660947E-01 </wgt>
<wgt id='1134'> +3.9495864E-01 </wgt>
<wgt id='1135'> +3.9487949E-01 </wgt>
<wgt id='1136'> +3.9539565E-01 </wgt>
<wgt id='1137'> +3.9542066E-01 </wgt>
<wgt id='1138'> +3.9407470E-01 </wgt>
<wgt id='1139'> +3.9473670E-01 </wgt>
<wgt id='1140'> +3.9503634E-01 </wgt>
<wgt id='1141'> +3.9577216E-01 </wgt>
<wgt id='1142'> +3.9564821E-01 </wgt>
<wgt id='1143'> +3.9649701E-01 </wgt>
<wgt id='1144'> +3.9523035E-01 </wgt>
<wgt id='1145'> +3.9607137E-01 </wgt>
<wgt id='1146'> +3.9575032E-01 </wgt>
<wgt id='1147'> +3.9620603E-01 </wgt>
<wgt id='1148'> +3.9556008E-01 </wgt>
<wgt id='1149'> +3.8983229E-01 </wgt>
<wgt id='1150'> +3.1101695E-01 </wgt>
<wgt id='1151'> +3.9072999E-01 </wgt>
<wgt id='1152'> +3.6038471E-01 </wgt>
<wgt id='1153'> +4.0291084E-01 </wgt>
<wgt id='1154'> +3.7930019E-01 </wgt>
<wgt id='1155'> +4.0257949E-01 </wgt>
<wgt id='1156'> +3.7390096E-01 </wgt>
<wgt id='1157'> +3.7174219E-01 </wgt>
<wgt id='1158'> +3.7680319E-01 </wgt>
<wgt id='1159'> +3.9917219E-01 </wgt>
<wgt id='1160'> +3.6268016E-01 </wgt>
<wgt id='1161'> +4.1537747E-01 </wgt>
<wgt id='1162'> +4.1930531E-01 </wgt>
<wgt id='1163'> +3.4225583E-01 </wgt>
<wgt id='1164'> +3.5250733E-01 </wgt>
<wgt id='1165'> +3.7353653E-01 </wgt>
<wgt id='1166'> +3.6063410E-01 </wgt>
<wgt id='1167'> +3.5487838E-01 </wgt>
<wgt id='1168'> +4.0500231E-01 </wgt>
<wgt id='1169'> +4.3071139E-01 </wgt>
<wgt id='1170'> +3.8913040E-01 </wgt>
<wgt id='1171'> +3.7523783E-01 </wgt>
<wgt id='1172'> +3.8456638E-01 </wgt>
<wgt id='1173'> +3.9619733E-01 </wgt>
<wgt id='1174'> +4.0245229E-01 </wgt>
<wgt id='1175'> +3.6091327E-01 </wgt>
<wgt id='1176'> +4.1214950E-01 </wgt>
<wgt id='1177'> +3.7541848E-01 </wgt>
<wgt id='1178'> +3.9830533E-01 </wgt>
<wgt id='1179'> +3.7460030E-01 </wgt>
<wgt id='1180'> +3.7118711E-01 </wgt>
<wgt id='1181'> +3.8216465E-01 </wgt>
<wgt id='1182'> +3.7608157E-01 </wgt>
<wgt id='1183'> +3.7967957E-01 </wgt>
<wgt id='1184'> +3.7333139E-01 </wgt>
<wgt id='1185'> +3.8395128E-01 </wgt>
<wgt id='1186'> +3.8355589E-01 </wgt>
<wgt id='1187'> +4.0572712E-01 </wgt>
<wgt id='1188'> +3.9391620E-01 </wgt>
<wgt id='1189'> +3.9812657E-01 </wgt>
<wgt id='1190'> +4.0320979E-01 </wgt>
<wgt id='1191'> +3.9512389E-01 </wgt>
<wgt id='1192'> +3.9897843E-01 </wgt>
<wgt id='1193'> +4.1894972E-01 </wgt>
<wgt id='1194'> +3.9920415E-01 </wgt>
<wgt id='1195'> +3.8749114E-01 </wgt>
<wgt id='1196'> +4.1505252E-01 </wgt>
<wgt id='1197'> +3.3964266E-01 </wgt>
<wgt id='1198'> +3.8893747E-01 </wgt>
<wgt id='1199'> +4.1133681E-01 </wgt>
<wgt id='1200'> +3.8597640E-01 </wgt>
<wgt id='1201'> +4.1069407E-01 </wgt>
<wgt id='1202'> +3.9180074E-01 </wgt>
<wgt id='1203'> +3.8699041E-01 </wgt>
<wgt id='1204'> +3.6062279E-01 </wgt>
<wgt id='1205'> +3.8920283E-01 </wgt>
<wgt id='1206'> +3.7939737E-01 </wgt>
<wgt id='1207'> +3.9830941E-01 </wgt>
<wgt id='1208'> +3.8707376E-01 </wgt>
<wgt id='1209'> +3.7077800E-01 </wgt>
<wgt id='1210'> +3.7971424E-01 </wgt>
<wgt id='1211'> +3.7861936E-01 </wgt>
<wgt id='1212'> +4.0646102E-01 </wgt>
<wgt id='1213'> +3.7956128E-01 </wgt>
<wgt id='1214'> +3.8181938E-01 </wgt>
<wgt id='1215'> +3.6759125E-01 </wgt>
<wgt id='1216'> +3.9047547E-01 </wgt>
<wgt id='1217'> +4.0587930E-01 </wgt>
<wgt id='1218'> +4.2051696E-01 </wgt>
<wgt id='1219'> +3.9857447E-01 </wgt>
<wgt id='1220'> +3.9160113E-01 </wgt>
<wgt id='1221'> +3.9823402E-01 </wgt>
<wgt id='1222'> +4.5938924E-01 </wgt>
<wgt id='1223'> +4.3478966E-01 </wgt>
<wgt id='1224'> +4.0443678E-01 </wgt>
<wgt id='1225'> +4.1857957E-01 </wgt>
<wgt id='1226'> +4.0646998E-01 </wgt>
<wgt id='1227'> +4.1022966E-01 </wgt>
<wgt id='1228'> +4.0634147E-01 </wgt>
<wgt id='1229'> +3.7975962E-01 </wgt>
<wgt id='1230'> +4.0408648E-01 </wgt>
<wgt id='1231'> +3.7353653E-01 </wgt>
<wgt id='1232'> +4.5478997E-01 </wgt>
<wgt id='1233'> +3.6802325E-01 </wgt>
<wgt id='1234'> +3.8739624E-01 </wgt>
<wgt id='1235'> +3.1231075E-01 </wgt>
<wgt id='1236'> +3.8864529E-01 </wgt>
<wgt id='1237'> +3.6125590E-01 </wgt>
<wgt id='1238'> +4.8842336E-01 </wgt>
<wgt id='1239'> +4.2073632E-01 </wgt>
<wgt id='1240'> +3.8107479E-01 </wgt>
<wgt id='1241'> +4.1289474E-01 </wgt>
<wgt id='1242'> +3.9708697E-01 </wgt>
<wgt id='1243'> +3.7923434E-01 </wgt>
<wgt id='1244'> +3.5057184E-01 </wgt>
<wgt id='1245'> +3.8157578E-01 </wgt>
<wgt id='1246'> +3.9265807E-01 </wgt>
<wgt id='1247'> +4.0939684E-01 </wgt>
<wgt id='1248'> +3.9117995E-01 </wgt>
<wgt id='1249'> +3.7361786E-01 </wgt>
<wgt id='1250'> +4.4217437E-01 </wgt>
<wgt id='1251'> +4.3735861E-01 </wgt>
<wgt id='1252'> +4.3071608E-01 </wgt>
<wgt id='1253'> +4.0419006E-01 </wgt>
<wgt id='1254'> +3.7536911E-01 </wgt>
<wgt id='1255'> +4.4085349E-01 </wgt>
<wgt id='1256'> +4.4066849E-01 </wgt>
<wgt id='1257'> +4.4096466E-01 </wgt>
<wgt id='1258'> +4.4176100E-01 </wgt>
<wgt id='1259'> +4.4037521E-01 </wgt>
<wgt id='1260'> +4.2812046E-01 </wgt>
<wgt id='1261'> +4.5801723E-01 </wgt>
<wgt id='1262'> +4.4305645E-01 </wgt>
<wgt id='1263'> +4.3940743E-01 </wgt>
<wgt id='1264'> +4.3527532E-01 </wgt>
<wgt id='1265'> +4.4466589E-01 </wgt>
<wgt id='1266'> +4.3516973E-01 </wgt>
<wgt id='1267'> +4.4644055E-01 </wgt>
<wgt id='1268'> +4.4144031E-01 </wgt>
<wgt id='1269'> +4.4012712E-01 </wgt>
<wgt id='1270'> +4.3344674E-01 </wgt>
<wgt id='1271'> +4.4884309E-01 </wgt>
<wgt id='1272'> +4.3598450E-01 </wgt>
<wgt id='1273'> +4.4457710E-01 </wgt>
<wgt id='1274'> +4.4234104E-01 </wgt>
<wgt id='1275'> +4.3905626E-01 </wgt>
<wgt id='1276'> +4.4956245E-01 </wgt>
<wgt id='1277'> +4.3168047E-01 </wgt>
<wgt id='1278'> +4.3778492E-01 </wgt>
<wgt id='1279'> +4.4306524E-01 </wgt>
<wgt id='1280'> +4.4175101E-01 </wgt>
<wgt id='1281'> +4.3832226E-01 </wgt>
<wgt id='1282'> +4.4202580E-01 </wgt>
<wgt id='1283'> +4.3840062E-01 </wgt>
<wgt id='1284'> +4.4063702E-01 </wgt>
<wgt id='1285'> +4.4141481E-01 </wgt>
<wgt id='1286'> +4.4211018E-01 </wgt>
<wgt id='1287'> +4.4074387E-01 </wgt>
<wgt id='1288'> +4.3762205E-01 </wgt>
<wgt id='1289'> +4.4087154E-01 </wgt>
<wgt id='1290'> +4.4288333E-01 </wgt>
<wgt id='1291'> +4.3389825E-01 </wgt>
<wgt id='1292'> +4.4542932E-01 </wgt>
<wgt id='1293'> +4.3493170E-01 </wgt>
<wgt id='1294'> +4.3801077E-01 </wgt>
<wgt id='1295'> +4.3984829E-01 </wgt>
<wgt id='1296'> +4.4938678E-01 </wgt>
<wgt id='1297'> +4.5146234E-01 </wgt>
<wgt id='1298'> +4.4766281E-01 </wgt>
<wgt id='1299'> +4.4449982E-01 </wgt>
<wgt id='1300'> +4.5485665E-01 </wgt>
<wgt id='1301'> +4.5472811E-01 </wgt>
<wgt id='1302'> +4.4143095E-01 </wgt>
<wgt id='1303'> +4.4613340E-01 </wgt>
<wgt id='1304'> +4.5154565E-01 </wgt>
<wgt id='1305'> +4.4603886E-01 </wgt>
<wgt id='1306'> +4.5413265E-01 </wgt>
<wgt id='1307'> +4.6779830E-01 </wgt>
<wgt id='1308'> +4.3796073E-01 </wgt>
<wgt id='1309'> +4.5014925E-01 </wgt>
<wgt id='1310'> +4.4834925E-01 </wgt>
<wgt id='1311'> +4.4876312E-01 </wgt>
<wgt id='1312'> +4.4957483E-01 </wgt>
<wgt id='1313'> +4.4340296E-01 </wgt>
<wgt id='1314'> +4.5674646E-01 </wgt>
<wgt id='1315'> +4.5050815E-01 </wgt>
<wgt id='1316'> +4.4831956E-01 </wgt>
<wgt id='1317'> +4.5564296E-01 </wgt>
<wgt id='1318'> +4.3918828E-01 </wgt>
<wgt id='1319'> +4.4428352E-01 </wgt>
<wgt id='1320'> +4.5263136E-01 </wgt>
<wgt id='1321'> +4.4755503E-01 </wgt>
<wgt id='1322'> +4.5024775E-01 </wgt>
<wgt id='1323'> +4.4797602E-01 </wgt>
<wgt id='1324'> +4.5124266E-01 </wgt>
<wgt id='1325'> +4.4678834E-01 </wgt>
<wgt id='1326'> +4.5336858E-01 </wgt>
<wgt id='1327'> +4.4720221E-01 </wgt>
<wgt id='1328'> +4.5016598E-01 </wgt>
<wgt id='1329'> +4.5134299E-01 </wgt>
<wgt id='1330'> +4.4725580E-01 </wgt>
<wgt id='1331'> +4.5286129E-01 </wgt>
<wgt id='1332'> +4.4741639E-01 </wgt>
<wgt id='1333'> +4.5205128E-01 </wgt>
<wgt id='1334'> +4.5014201E-01 </wgt>
<wgt id='1335'> +4.5029997E-01 </wgt>
<wgt id='1336'> +4.4252207E-01 </wgt>
<wgt id='1337'> +4.4938678E-01 </wgt>
<wgt id='1338'> +4.4946080E-01 </wgt>
<wgt id='1339'> +4.4938302E-01 </wgt>
<wgt id='1340'> +4.4927625E-01 </wgt>
<wgt id='1341'> +4.4917692E-01 </wgt>
<wgt id='1342'> +4.4910599E-01 </wgt>
<wgt id='1343'> +4.4900857E-01 </wgt>
<wgt id='1344'> +4.2015844E-01 </wgt>
<wgt id='1345'> +4.2244219E-01 </wgt>
<wgt id='1346'> +4.1788347E-01 </wgt>
<wgt id='1347'> +4.2028563E-01 </wgt>
<wgt id='1348'> +4.2004509E-01 </wgt>
<wgt id='1349'> +4.2134180E-01 </wgt>
<wgt id='1350'> +4.1916041E-01 </wgt>
<wgt id='1351'> +4.1588858E-01 </wgt>
<wgt id='1352'> +4.2640102E-01 </wgt>
<wgt id='1353'> +4.1125893E-01 </wgt>
<wgt id='1354'> +4.2643677E-01 </wgt>
<wgt id='1355'> +4.1639851E-01 </wgt>
<wgt id='1356'> +4.2306811E-01 </wgt>
<wgt id='1357'> +4.2889250E-01 </wgt>
<wgt id='1358'> +4.1485649E-01 </wgt>
<wgt id='1359'> +4.1987079E-01 </wgt>
<wgt id='1360'> +4.2091070E-01 </wgt>
<wgt id='1361'> +4.1174502E-01 </wgt>
<wgt id='1362'> +4.2797393E-01 </wgt>
<wgt id='1363'> +4.1851162E-01 </wgt>
<wgt id='1364'> +4.2221911E-01 </wgt>
<wgt id='1365'> +4.1820118E-01 </wgt>
<wgt id='1366'> +4.2100728E-01 </wgt>
<wgt id='1367'> +4.1870468E-01 </wgt>
<wgt id='1368'> +4.2084922E-01 </wgt>
<wgt id='1369'> +4.2608657E-01 </wgt>
<wgt id='1370'> +4.1485376E-01 </wgt>
<wgt id='1371'> +4.1964513E-01 </wgt>
<wgt id='1372'> +4.2116681E-01 </wgt>
<wgt id='1373'> +4.2209620E-01 </wgt>
<wgt id='1374'> +4.2082562E-01 </wgt>
<wgt id='1375'> +4.2023338E-01 </wgt>
<wgt id='1376'> +4.2022067E-01 </wgt>
<wgt id='1377'> +4.1814406E-01 </wgt>
<wgt id='1378'> +4.2247881E-01 </wgt>
<wgt id='1379'> +4.1724017E-01 </wgt>
<wgt id='1380'> +4.2310252E-01 </wgt>
<wgt id='1381'> +4.1911454E-01 </wgt>
<wgt id='1382'> +4.2312253E-01 </wgt>
<wgt id='1383'> +4.1380432E-01 </wgt>
<wgt id='1384'> +4.2348587E-01 </wgt>
<wgt id='1385'> +4.2015844E-01 </wgt>
<wgt id='1386'> +4.1944652E-01 </wgt>
<wgt id='1387'> +4.1954148E-01 </wgt>
<wgt id='1388'> +4.1973540E-01 </wgt>
<wgt id='1389'> +4.1990565E-01 </wgt>
<wgt id='1390'> +4.2002966E-01 </wgt>
<wgt id='1391'> +4.1988489E-01 </wgt>
<wgt id='1392'> +4.8789113E-01 </wgt>
<wgt id='1393'> +4.8760986E-01 </wgt>
<wgt id='1394'> +4.8819591E-01 </wgt>
<wgt id='1395'> +4.8681196E-01 </wgt>
<wgt id='1396'> +4.8864802E-01 </wgt>
<wgt id='1397'> +4.8989698E-01 </wgt>
<wgt id='1398'> +4.8594351E-01 </wgt>
<wgt id='1399'> +4.8666389E-01 </wgt>
<wgt id='1400'> +4.8942715E-01 </wgt>
<wgt id='1401'> +4.8924271E-01 </wgt>
<wgt id='1402'> +4.8621034E-01 </wgt>
<wgt id='1403'> +4.8547015E-01 </wgt>
<wgt id='1404'> +4.9269048E-01 </wgt>
<wgt id='1405'> +4.8751235E-01 </wgt>
<wgt id='1406'> +4.8839757E-01 </wgt>
<wgt id='1407'> +4.8631246E-01 </wgt>
<wgt id='1408'> +4.8897682E-01 </wgt>
<wgt id='1409'> +4.9370763E-01 </wgt>
<wgt id='1410'> +4.8139840E-01 </wgt>
<wgt id='1411'> +5.2368151E-01 </wgt>
<wgt id='1412'> +4.6052504E-01 </wgt>
<wgt id='1413'> +4.8432534E-01 </wgt>
<wgt id='1414'> +4.9165406E-01 </wgt>
<wgt id='1415'> +4.8140710E-01 </wgt>
<wgt id='1416'> +4.9428358E-01 </wgt>
<wgt id='1417'> +4.8805516E-01 </wgt>
<wgt id='1418'> +4.8765806E-01 </wgt>
<wgt id='1419'> +4.9087936E-01 </wgt>
<wgt id='1420'> +4.8515152E-01 </wgt>
<wgt id='1421'> +4.7969405E-01 </wgt>
<wgt id='1422'> +4.9765654E-01 </wgt>
<wgt id='1423'> +4.7116048E-01 </wgt>
<wgt id='1424'> +5.0090115E-01 </wgt>
<wgt id='1425'> +4.8729801E-01 </wgt>
<wgt id='1426'> +4.8864138E-01 </wgt>
<wgt id='1427'> +4.9005065E-01 </wgt>
<wgt id='1428'> +4.8313679E-01 </wgt>
<wgt id='1429'> +4.9066420E-01 </wgt>
<wgt id='1430'> +4.8568561E-01 </wgt>
<wgt id='1431'> +4.9669021E-01 </wgt>
<wgt id='1432'> +4.7992181E-01 </wgt>
<wgt id='1433'> +5.1630361E-01 </wgt>
<wgt id='1434'> +4.4276719E-01 </wgt>
<wgt id='1435'> +4.6911036E-01 </wgt>
<wgt id='1436'> +4.8847969E-01 </wgt>
<wgt id='1437'> +4.9360953E-01 </wgt>
<wgt id='1438'> +4.6387253E-01 </wgt>
<wgt id='1439'> +4.8772014E-01 </wgt>
<wgt id='1440'> +4.9157404E-01 </wgt>
<wgt id='1441'> +4.8618604E-01 </wgt>
<wgt id='1442'> +4.8882440E-01 </wgt>
<wgt id='1443'> +4.6069928E-01 </wgt>
<wgt id='1444'> +4.6034373E-01 </wgt>
<wgt id='1445'> +4.6105937E-01 </wgt>
<wgt id='1446'> +4.5945912E-01 </wgt>
<wgt id='1447'> +4.6151576E-01 </wgt>
<wgt id='1448'> +4.6258254E-01 </wgt>
<wgt id='1449'> +4.5893910E-01 </wgt>
<wgt id='1450'> +4.5943641E-01 </wgt>
<wgt id='1451'> +4.6208055E-01 </wgt>
<wgt id='1452'> +4.6236491E-01 </wgt>
<wgt id='1453'> +4.5910428E-01 </wgt>
<wgt id='1454'> +4.5868427E-01 </wgt>
<wgt id='1455'> +4.6500522E-01 </wgt>
<wgt id='1456'> +4.6047527E-01 </wgt>
<wgt id='1457'> +4.6112172E-01 </wgt>
<wgt id='1458'> +4.5956007E-01 </wgt>
<wgt id='1459'> +4.6135956E-01 </wgt>
<wgt id='1460'> +4.7602850E-01 </wgt>
<wgt id='1461'> +4.4281601E-01 </wgt>
<wgt id='1462'> +4.9308441E-01 </wgt>
<wgt id='1463'> +4.3270413E-01 </wgt>
<wgt id='1464'> +4.5800863E-01 </wgt>
<wgt id='1465'> +4.6423526E-01 </wgt>
<wgt id='1466'> +4.5258861E-01 </wgt>
<wgt id='1467'> +4.6603540E-01 </wgt>
<wgt id='1468'> +4.6504465E-01 </wgt>
<wgt id='1469'> +4.5650078E-01 </wgt>
<wgt id='1470'> +4.6302018E-01 </wgt>
<wgt id='1471'> +4.5887028E-01 </wgt>
<wgt id='1472'> +4.5515629E-01 </wgt>
<wgt id='1473'> +4.6746820E-01 </wgt>
<wgt id='1474'> +4.4825238E-01 </wgt>
<wgt id='1475'> +4.7504760E-01 </wgt>
<wgt id='1476'> +4.6265212E-01 </wgt>
<wgt id='1477'> +4.5882910E-01 </wgt>
<wgt id='1478'> +4.6271332E-01 </wgt>
<wgt id='1479'> +4.5585592E-01 </wgt>
<wgt id='1480'> +4.6326234E-01 </wgt>
<wgt id='1481'> +4.5871251E-01 </wgt>
<wgt id='1482'> +4.6974167E-01 </wgt>
<wgt id='1483'> +4.5117189E-01 </wgt>
<wgt id='1484'> +4.8842848E-01 </wgt>
<wgt id='1485'> +4.1897820E-01 </wgt>
<wgt id='1486'> +4.3791676E-01 </wgt>
<wgt id='1487'> +4.6175067E-01 </wgt>
<wgt id='1488'> +4.6713466E-01 </wgt>
<wgt id='1489'> +4.3547734E-01 </wgt>
<wgt id='1490'> +4.6121188E-01 </wgt>
<wgt id='1491'> +4.6389396E-01 </wgt>
<wgt id='1492'> +4.5984970E-01 </wgt>
<wgt id='1493'> +4.6137244E-01 </wgt>
<wgt id='1494'> +4.6758628E-01 </wgt>
<wgt id='1495'> +4.3116532E-01 </wgt>
<wgt id='1496'> +4.4191819E-01 </wgt>
<wgt id='1497'> +4.5291740E-01 </wgt>
<wgt id='1498'> +4.7606451E-01 </wgt>
<wgt id='1499'> +4.6516066E-01 </wgt>
<wgt id='1500'> +4.7860812E-01 </wgt>
<wgt id='1501'> +4.7547957E-01 </wgt>
<wgt id='1502'> +4.7340149E-01 </wgt>
<wgt id='1503'> +4.7098097E-01 </wgt>
<wgt id='1504'> +4.6795752E-01 </wgt>
<wgt id='1505'> +4.6146674E-01 </wgt>
<wgt id='1506'> +4.5829922E-01 </wgt>
<wgt id='1507'> +4.5527831E-01 </wgt>
<wgt id='1508'> +4.6516066E-01 </wgt>
<wgt id='1509'> +4.6227276E-01 </wgt>
<wgt id='1510'> +4.6367662E-01 </wgt>
<wgt id='1511'> +4.6655298E-01 </wgt>
<wgt id='1512'> +4.6667687E-01 </wgt>
<wgt id='1513'> +4.1544139E-01 </wgt>
<wgt id='1514'> +4.1462789E-01 </wgt>
<wgt id='1515'> +4.1650178E-01 </wgt>
<wgt id='1516'> +4.1671478E-01 </wgt>
<wgt id='1517'> +4.1421024E-01 </wgt>
<wgt id='1518'> +4.1372937E-01 </wgt>
<wgt id='1519'> +4.1615580E-01 </wgt>
<wgt id='1520'> +4.1581416E-01 </wgt>
<wgt id='1521'> +4.1507816E-01 </wgt>
<wgt id='1522'> +4.1762032E-01 </wgt>
<wgt id='1523'> +4.1340120E-01 </wgt>
<wgt id='1524'> +4.1966158E-01 </wgt>
<wgt id='1525'> +4.1359662E-01 </wgt>
<wgt id='1526'> +4.1551626E-01 </wgt>
<wgt id='1527'> +4.1539436E-01 </wgt>
<wgt id='1528'> +4.1570246E-01 </wgt>
<wgt id='1529'> +4.1522443E-01 </wgt>
<wgt id='1530'> +4.4800984E-01 </wgt>
<wgt id='1531'> +3.9719509E-01 </wgt>
<wgt id='1532'> +3.9602462E-01 </wgt>
<wgt id='1533'> +4.4149606E-01 </wgt>
<wgt id='1534'> +4.4454925E-01 </wgt>
<wgt id='1535'> +3.9510582E-01 </wgt>
<wgt id='1536'> +4.1257129E-01 </wgt>
<wgt id='1537'> +4.1827918E-01 </wgt>
<wgt id='1538'> +4.1689186E-01 </wgt>
<wgt id='1539'> +4.1177979E-01 </wgt>
<wgt id='1540'> +4.1667276E-01 </wgt>
<wgt id='1541'> +4.1382658E-01 </wgt>
<wgt id='1542'> +4.2022307E-01 </wgt>
<wgt id='1543'> +4.0345419E-01 </wgt>
<wgt id='1544'> +4.1074811E-01 </wgt>
<wgt id='1545'> +4.2537294E-01 </wgt>
<wgt id='1546'> +4.1872762E-01 </wgt>
<wgt id='1547'> +4.0925990E-01 </wgt>
<wgt id='1548'> +4.0978787E-01 </wgt>
<wgt id='1549'> +4.1800831E-01 </wgt>
<wgt id='1550'> +4.1501057E-01 </wgt>
<wgt id='1551'> +4.1606724E-01 </wgt>
<wgt id='1552'> +4.2614070E-01 </wgt>
<wgt id='1553'> +4.0823096E-01 </wgt>
<wgt id='1554'> +3.8878230E-01 </wgt>
<wgt id='1555'> +4.5473109E-01 </wgt>
<wgt id='1556'> +4.1397436E-01 </wgt>
<wgt id='1557'> +4.2261190E-01 </wgt>
<wgt id='1558'> +4.2311465E-01 </wgt>
<wgt id='1559'> +4.0667379E-01 </wgt>
<wgt id='1560'> +4.0080265E-01 </wgt>
<wgt id='1561'> +4.1977488E-01 </wgt>
<wgt id='1562'> +4.1158713E-01 </wgt>
<wgt id='1563'> +4.1663743E-01 </wgt>
<wgt id='1564'> +4.1544139E-01 </wgt>
<wgt id='1565'> +4.0450375E-01 </wgt>
<wgt id='1566'> +4.2553378E-01 </wgt>
<wgt id='1567'> +4.1487867E-01 </wgt>
<wgt id='1568'> +4.1773762E-01 </wgt>
<wgt id='1569'> +4.1704823E-01 </wgt>
<wgt id='1570'> +4.1635714E-01 </wgt>
<wgt id='1571'> +4.1585552E-01 </wgt>
<wgt id='1572'> +4.1554677E-01 </wgt>
<wgt id='1573'> +4.1449904E-01 </wgt>
<wgt id='1574'> +4.1721132E-01 </wgt>
<wgt id='1575'> +4.1650059E-01 </wgt>
<wgt id='1576'> +4.1487867E-01 </wgt>
<wgt id='1577'> +4.1220432E-01 </wgt>
<wgt id='1578'> +4.1374638E-01 </wgt>
<wgt id='1579'> +4.1616391E-01 </wgt>
<wgt id='1580'> +4.1741264E-01 </wgt>
<wgt id='1581'> +4.1197626E-01 </wgt>
<wgt id='1582'> +4.0941253E-01 </wgt>
<wgt id='1583'> +4.0588733E-01 </wgt>
<wgt id='1584'> +4.1134101E-01 </wgt>
<wgt id='1585'> +4.0758921E-01 </wgt>
<wgt id='1586'> +4.5481717E-01 </wgt>
<wgt id='1587'> +4.1757591E-01 </wgt>
<wgt id='1588'> +4.0291874E-01 </wgt>
<wgt id='1589'> +4.1335275E-01 </wgt>
<wgt id='1590'> +4.1812641E-01 </wgt>
<wgt id='1591'> +4.1426447E-01 </wgt>
<wgt id='1592'> +4.0317323E-01 </wgt>
<wgt id='1593'> +4.1136181E-01 </wgt>
<wgt id='1594'> +4.0268563E-01 </wgt>
<wgt id='1595'> +4.1337336E-01 </wgt>
<wgt id='1596'> +4.1559309E-01 </wgt>
<wgt id='1597'> +4.1411856E-01 </wgt>
<wgt id='1598'> +4.1319445E-01 </wgt>
<wgt id='1599'> +4.0995549E-01 </wgt>
<wgt id='1600'> +4.1211277E-01 </wgt>
<wgt id='1601'> +4.1286585E-01 </wgt>
<wgt id='1602'> +4.1242742E-01 </wgt>
<wgt id='1603'> +4.1283283E-01 </wgt>
<wgt id='1604'> +4.1254229E-01 </wgt>
<wgt id='1605'> +4.1060621E-01 </wgt>
<wgt id='1606'> +4.1009156E-01 </wgt>
<wgt id='1607'> +4.1184876E-01 </wgt>
<wgt id='1608'> +4.1286447E-01 </wgt>
<wgt id='1609'> +4.0868590E-01 </wgt>
<wgt id='1610'> +4.1103884E-01 </wgt>
<wgt id='1611'> +4.0555085E-01 </wgt>
<wgt id='1612'> +3.9485849E-01 </wgt>
<wgt id='1613'> +3.9421113E-01 </wgt>
<wgt id='1614'> +3.9324745E-01 </wgt>
<wgt id='1615'> +3.9340384E-01 </wgt>
<wgt id='1616'> +3.9340264E-01 </wgt>
<wgt id='1617'> +3.9397296E-01 </wgt>
<wgt id='1618'> +3.9336434E-01 </wgt>
<wgt id='1619'> +3.9495056E-01 </wgt>
<wgt id='1620'> +3.9301384E-01 </wgt>
<wgt id='1621'> +3.9136320E-01 </wgt>
<wgt id='1622'> +3.9704355E-01 </wgt>
<wgt id='1623'> +3.9433828E-01 </wgt>
<wgt id='1624'> +3.9407227E-01 </wgt>
<wgt id='1625'> +3.9503232E-01 </wgt>
<wgt id='1626'> +3.8988334E-01 </wgt>
<wgt id='1627'> +3.9568334E-01 </wgt>
<wgt id='1628'> +3.9134046E-01 </wgt>
<wgt id='1629'> +3.9550693E-01 </wgt>
<wgt id='1630'> +3.9619593E-01 </wgt>
<wgt id='1631'> +3.9261586E-01 </wgt>
<wgt id='1632'> +3.9495487E-01 </wgt>
<wgt id='1633'> +3.9089833E-01 </wgt>
<wgt id='1634'> +3.9183371E-01 </wgt>
<wgt id='1635'> +3.9894047E-01 </wgt>
<wgt id='1636'> +3.9487321E-01 </wgt>
<wgt id='1637'> +3.9248492E-01 </wgt>
<wgt id='1638'> +4.0003288E-01 </wgt>
<wgt id='1639'> +3.9446804E-01 </wgt>
<wgt id='1640'> +3.9430143E-01 </wgt>
<wgt id='1641'> +4.0188774E-01 </wgt>
<wgt id='1642'> +3.9178983E-01 </wgt>
<wgt id='1643'> +3.9324385E-01 </wgt>
<wgt id='1644'> +3.9488183E-01 </wgt>
<wgt id='1645'> +3.9943011E-01 </wgt>
<wgt id='1646'> +3.9487990E-01 </wgt>
<wgt id='1647'> +3.8730760E-01 </wgt>
<wgt id='1648'> +3.9290419E-01 </wgt>
<wgt id='1649'> +3.8978006E-01 </wgt>
<wgt id='1650'> +3.9213128E-01 </wgt>
<wgt id='1651'> +3.9645891E-01 </wgt>
<wgt id='1652'> +3.9842452E-01 </wgt>
<wgt id='1653'> +3.9406081E-01 </wgt>
<wgt id='1654'> +3.9841819E-01 </wgt>
<wgt id='1655'> +3.9868142E-01 </wgt>
<wgt id='1656'> +3.8982243E-01 </wgt>
<wgt id='1657'> +4.0320189E-01 </wgt>
<wgt id='1658'> +3.9402783E-01 </wgt>
<wgt id='1659'> +3.9417387E-01 </wgt>
<wgt id='1660'> +3.9813432E-01 </wgt>
<wgt id='1661'> +3.9294742E-01 </wgt>
<wgt id='1662'> +4.0041443E-01 </wgt>
<wgt id='1663'> +3.9734734E-01 </wgt>
<wgt id='1664'> +3.9707059E-01 </wgt>
<wgt id='1665'> +3.9802521E-01 </wgt>
<wgt id='1666'> +3.9514983E-01 </wgt>
<wgt id='1667'> +3.9664320E-01 </wgt>
<wgt id='1668'> +3.9166178E-01 </wgt>
<wgt id='1669'> +3.9716532E-01 </wgt>
<wgt id='1670'> +3.9351751E-01 </wgt>
<wgt id='1671'> +3.9280957E-01 </wgt>
<wgt id='1672'> +3.9821353E-01 </wgt>
<wgt id='1673'> +3.9564258E-01 </wgt>
<wgt id='1674'> +3.9401794E-01 </wgt>
<wgt id='1675'> +3.9716286E-01 </wgt>
<wgt id='1676'> +3.9262028E-01 </wgt>
<wgt id='1677'> +3.9614565E-01 </wgt>
<wgt id='1678'> +3.9733420E-01 </wgt>
<wgt id='1679'> +3.9151574E-01 </wgt>
<wgt id='1680'> +3.9682620E-01 </wgt>
<wgt id='1681'> +3.9567823E-01 </wgt>
<wgt id='1682'> +3.9531744E-01 </wgt>
<wgt id='1683'> +3.9289480E-01 </wgt>
<wgt id='1684'> +3.9342712E-01 </wgt>
<wgt id='1685'> +3.9701844E-01 </wgt>
<wgt id='1686'> +3.9207732E-01 </wgt>
<wgt id='1687'> +3.9133574E-01 </wgt>
<wgt id='1688'> +3.9582768E-01 </wgt>
<wgt id='1689'> +3.9507224E-01 </wgt>
<wgt id='1690'> +3.9469950E-01 </wgt>
<wgt id='1691'> +3.9553382E-01 </wgt>
<wgt id='1692'> +3.9536055E-01 </wgt>
<wgt id='1693'> +3.9530905E-01 </wgt>
<wgt id='1694'> +3.9499373E-01 </wgt>
<wgt id='1695'> +3.9617705E-01 </wgt>
<wgt id='1696'> +3.9593214E-01 </wgt>
<wgt id='1697'> +3.9546422E-01 </wgt>
<wgt id='1698'> +3.9349129E-01 </wgt>
<wgt id='1699'> +3.9265418E-01 </wgt>
<wgt id='1700'> +3.9575343E-01 </wgt>
<wgt id='1701'> +3.9687746E-01 </wgt>
<wgt id='1702'> +3.9751384E-01 </wgt>
<wgt id='1703'> +3.9493428E-01 </wgt>
<wgt id='1704'> +3.9434806E-01 </wgt>
<wgt id='1705'> +3.9397311E-01 </wgt>
<wgt id='1706'> +3.9684988E-01 </wgt>
<wgt id='1707'> +3.9490202E-01 </wgt>
<wgt id='1708'> +3.9501344E-01 </wgt>
<wgt id='1709'> +3.9536956E-01 </wgt>
<wgt id='1710'> +3.9457379E-01 </wgt>
<wgt id='1711'> +3.9547700E-01 </wgt>
<wgt id='1712'> +3.9603534E-01 </wgt>
<wgt id='1713'> +3.9132460E-01 </wgt>
<wgt id='1714'> +4.0532282E-01 </wgt>
<wgt id='1715'> +3.9927286E-01 </wgt>
<wgt id='1716'> +3.7582224E-01 </wgt>
<wgt id='1717'> +4.0967509E-01 </wgt>
<wgt id='1718'> +4.1591610E-01 </wgt>
<wgt id='1719'> +3.9756234E-01 </wgt>
<wgt id='1720'> +3.9517124E-01 </wgt>
<wgt id='1721'> +4.0229577E-01 </wgt>
<wgt id='1722'> +4.1181900E-01 </wgt>
<wgt id='1723'> +4.0303387E-01 </wgt>
<wgt id='1724'> +4.0515412E-01 </wgt>
<wgt id='1725'> +4.2609302E-01 </wgt>
<wgt id='1726'> +3.8681314E-01 </wgt>
<wgt id='1727'> +4.1077379E-01 </wgt>
<wgt id='1728'> +3.8479806E-01 </wgt>
<wgt id='1729'> +3.8809328E-01 </wgt>
<wgt id='1730'> +4.0722634E-01 </wgt>
<wgt id='1731'> +4.2251633E-01 </wgt>
<wgt id='1732'> +3.8458266E-01 </wgt>
<wgt id='1733'> +4.0100168E-01 </wgt>
<wgt id='1734'> +4.0174478E-01 </wgt>
<wgt id='1735'> +4.8819573E-01 </wgt>
<wgt id='1736'> +3.9109540E-01 </wgt>
<wgt id='1737'> +3.5872075E-01 </wgt>
<wgt id='1738'> +4.2004841E-01 </wgt>
<wgt id='1739'> +3.8433145E-01 </wgt>
<wgt id='1740'> +4.0633029E-01 </wgt>
<wgt id='1741'> +4.0617617E-01 </wgt>
<wgt id='1742'> +3.8085948E-01 </wgt>
<wgt id='1743'> +3.8512633E-01 </wgt>
<wgt id='1744'> +4.1396905E-01 </wgt>
<wgt id='1745'> +4.5710738E-01 </wgt>
<wgt id='1746'> +4.0090905E-01 </wgt>
<wgt id='1747'> +4.0608189E-01 </wgt>
<wgt id='1748'> +3.9843072E-01 </wgt>
<wgt id='1749'> +3.8649005E-01 </wgt>
<wgt id='1750'> +3.8017132E-01 </wgt>
<wgt id='1751'> +4.0618847E-01 </wgt>
<wgt id='1752'> +4.1032658E-01 </wgt>
<wgt id='1753'> +4.0014115E-01 </wgt>
<wgt id='1754'> +4.1191105E-01 </wgt>
<wgt id='1755'> +4.1410875E-01 </wgt>
<wgt id='1756'> +3.9816906E-01 </wgt>
<wgt id='1757'> +4.1811208E-01 </wgt>
<wgt id='1758'> +3.7069577E-01 </wgt>
<wgt id='1759'> +3.8486557E-01 </wgt>
<wgt id='1760'> +4.0705405E-01 </wgt>
<wgt id='1761'> +4.6777389E-01 </wgt>
<wgt id='1762'> +4.1077379E-01 </wgt>
<wgt id='1763'> +4.1597651E-01 </wgt>
<wgt id='1764'> +3.8816000E-01 </wgt>
<wgt id='1765'> +3.9641284E-01 </wgt>
<wgt id='1766'> +4.0163402E-01 </wgt>
<wgt id='1767'> +4.1159184E-01 </wgt>
<wgt id='1768'> +3.7846109E-01 </wgt>
<wgt id='1769'> +3.3401728E-01 </wgt>
<wgt id='1770'> +4.2259424E-01 </wgt>
<wgt id='1771'> +3.7803732E-01 </wgt>
<wgt id='1772'> +3.9758618E-01 </wgt>
<wgt id='1773'> +3.8503689E-01 </wgt>
<wgt id='1774'> +3.5545784E-01 </wgt>
<wgt id='1775'> +3.9688805E-01 </wgt>
<wgt id='1776'> +3.7645432E-01 </wgt>
<wgt id='1777'> +4.1704677E-01 </wgt>
<wgt id='1778'> +3.9483937E-01 </wgt>
<wgt id='1779'> +3.6139971E-01 </wgt>
<wgt id='1780'> +3.5501638E-01 </wgt>
<wgt id='1781'> +3.9391863E-01 </wgt>
<wgt id='1782'> +4.0775343E-01 </wgt>
<wgt id='1783'> +3.7394051E-01 </wgt>
<wgt id='1784'> +3.8642572E-01 </wgt>
<wgt id='1785'> +4.0506179E-01 </wgt>
<wgt id='1786'> +4.2320244E-01 </wgt>
<wgt id='1787'> +4.1292977E-01 </wgt>
<wgt id='1788'> +4.1029255E-01 </wgt>
<wgt id='1789'> +4.0837941E-01 </wgt>
<wgt id='1790'> +3.7735528E-01 </wgt>
<wgt id='1791'> +4.1901888E-01 </wgt>
<wgt id='1792'> +4.0438488E-01 </wgt>
<wgt id='1793'> +4.0242798E-01 </wgt>
<wgt id='1794'> +3.5869824E-01 </wgt>
<wgt id='1795'> +4.2513944E-01 </wgt>
<wgt id='1796'> +3.8085235E-01 </wgt>
<wgt id='1797'> +3.9412666E-01 </wgt>
<wgt id='1798'> +3.8868834E-01 </wgt>
<wgt id='1799'> +3.8706672E-01 </wgt>
<wgt id='1800'> +4.1072800E-01 </wgt>
<wgt id='1801'> +4.0825493E-01 </wgt>
<wgt id='1802'> +3.6740720E-01 </wgt>
<wgt id='1803'> +3.9220367E-01 </wgt>
<wgt id='1804'> +3.8372021E-01 </wgt>
<wgt id='1805'> +4.0558668E-01 </wgt>
<wgt id='1806'> +3.9082618E-01 </wgt>
<wgt id='1807'> +4.0318756E-01 </wgt>
<wgt id='1808'> +4.4389939E-01 </wgt>
<wgt id='1809'> +4.3660622E-01 </wgt>
<wgt id='1810'> +4.0263109E-01 </wgt>
<wgt id='1811'> +3.8140601E-01 </wgt>
<wgt id='1812'> +4.0271377E-01 </wgt>
<wgt id='1813'> +4.0287154E-01 </wgt>
<wgt id='1814'> +3.6378931E-01 </wgt>
<wgt id='1815'> +4.0669203E-01 </wgt>
<wgt id='1816'> +3.9479334E-01 </wgt>
<wgt id='1817'> +4.0200557E-01 </wgt>
<wgt id='1818'> +4.0548708E-01 </wgt>
<wgt id='1819'> +4.0355851E-01 </wgt>
<wgt id='1820'> +3.7104108E-01 </wgt>
<wgt id='1821'> +3.8220905E-01 </wgt>
<wgt id='1822'> +3.7540690E-01 </wgt>
<wgt id='1823'> +3.8195851E-01 </wgt>
<wgt id='1824'> +4.0534430E-01 </wgt>
<wgt id='1825'> +3.8961342E-01 </wgt>
<wgt id='1826'> +3.7204337E-01 </wgt>
<wgt id='1827'> +3.6753324E-01 </wgt>
<wgt id='1828'> +3.8846731E-01 </wgt>
<wgt id='1829'> +4.0145613E-01 </wgt>
<wgt id='1830'> +3.7906067E-01 </wgt>
<wgt id='1831'> +4.0788028E-01 </wgt>
<wgt id='1832'> +4.2597850E-01 </wgt>
<wgt id='1833'> +4.0935591E-01 </wgt>
<wgt id='1834'> +4.5900451E-01 </wgt>
<wgt id='1835'> +3.7987620E-01 </wgt>
<wgt id='1836'> +4.0354713E-01 </wgt>
<wgt id='1837'> +3.5419211E-01 </wgt>
<wgt id='1838'> +3.7153205E-01 </wgt>
<wgt id='1839'> +4.0782958E-01 </wgt>
<wgt id='1840'> +3.6509275E-01 </wgt>
<wgt id='1841'> +4.0786574E-01 </wgt>
<wgt id='1842'> +3.9764387E-01 </wgt>
<wgt id='1843'> +4.1804995E-01 </wgt>
<wgt id='1844'> +3.8421054E-01 </wgt>
<wgt id='1845'> +4.0479792E-01 </wgt>
<wgt id='1846'> +3.9830176E-01 </wgt>
<wgt id='1847'> +4.1763139E-01 </wgt>
<wgt id='1848'> +3.6409700E-01 </wgt>
<wgt id='1849'> +3.9476686E-01 </wgt>
<wgt id='1850'> +3.8092696E-01 </wgt>
<wgt id='1851'> +4.1656165E-01 </wgt>
<wgt id='1852'> +4.4450651E-01 </wgt>
<wgt id='1853'> +4.0453557E-01 </wgt>
<wgt id='1854'> +4.0752559E-01 </wgt>
<wgt id='1855'> +3.5918372E-01 </wgt>
<wgt id='1856'> +3.9106821E-01 </wgt>
<wgt id='1857'> +3.7755850E-01 </wgt>
<wgt id='1858'> +3.9702540E-01 </wgt>
<wgt id='1859'> +3.8006126E-01 </wgt>
<wgt id='1860'> +4.2150580E-01 </wgt>
<wgt id='1861'> +3.8920070E-01 </wgt>
<wgt id='1862'> +4.0191521E-01 </wgt>
<wgt id='1863'> +4.0686177E-01 </wgt>
<wgt id='1864'> +3.7284160E-01 </wgt>
<wgt id='1865'> +4.0825662E-01 </wgt>
<wgt id='1866'> +4.0745053E-01 </wgt>
<wgt id='1867'> +3.9565157E-01 </wgt>
<wgt id='1868'> +4.0323120E-01 </wgt>
<wgt id='1869'> +3.5208394E-01 </wgt>
<wgt id='1870'> +3.7354678E-01 </wgt>
<wgt id='1871'> +3.9147849E-01 </wgt>
<wgt id='1872'> +4.1224069E-01 </wgt>
<wgt id='1873'> +4.3094754E-01 </wgt>
<wgt id='1874'> +3.9241049E-01 </wgt>
<wgt id='1875'> +4.1221766E-01 </wgt>
<wgt id='1876'> +3.8807601E-01 </wgt>
<wgt id='1877'> +4.2406727E-01 </wgt>
<wgt id='1878'> +3.9739287E-01 </wgt>
<wgt id='1879'> +3.6200758E-01 </wgt>
<wgt id='1880'> +5.0439546E-01 </wgt>
<wgt id='1881'> +3.5883649E-01 </wgt>
<wgt id='1882'> +4.0755963E-01 </wgt>
<wgt id='1883'> +3.8825913E-01 </wgt>
<wgt id='1884'> +3.7175427E-01 </wgt>
<wgt id='1885'> +3.8516225E-01 </wgt>
<wgt id='1886'> +3.8791418E-01 </wgt>
<wgt id='1887'> +3.8685292E-01 </wgt>
<wgt id='1888'> +3.9748689E-01 </wgt>
<wgt id='1889'> +3.3385955E-01 </wgt>
<wgt id='1890'> +4.0350210E-01 </wgt>
<wgt id='1891'> +4.0300173E-01 </wgt>
<wgt id='1892'> +3.8502685E-01 </wgt>
<wgt id='1893'> +3.8000012E-01 </wgt>
<wgt id='1894'> +3.8792025E-01 </wgt>
<wgt id='1895'> +3.9297394E-01 </wgt>
<wgt id='1896'> +3.9393222E-01 </wgt>
<wgt id='1897'> +3.7334485E-01 </wgt>
<wgt id='1898'> +3.5021797E-01 </wgt>
<wgt id='1899'> +3.9753939E-01 </wgt>
<wgt id='1900'> +3.9251143E-01 </wgt>
<wgt id='1901'> +4.1699476E-01 </wgt>
<wgt id='1902'> +3.8632563E-01 </wgt>
<wgt id='1903'> +4.2110995E-01 </wgt>
<wgt id='1904'> +3.7487737E-01 </wgt>
<wgt id='1905'> +4.1197153E-01 </wgt>
<wgt id='1906'> +3.7378219E-01 </wgt>
<wgt id='1907'> +3.9559361E-01 </wgt>
<wgt id='1908'> +3.7746169E-01 </wgt>
<wgt id='1909'> +4.1333293E-01 </wgt>
<wgt id='1910'> +3.6439728E-01 </wgt>
<wgt id='1911'> +4.3189304E-01 </wgt>
<wgt id='1912'> +3.6013251E-01 </wgt>
<wgt id='1913'> +4.1577362E-01 </wgt>
<wgt id='1914'> +3.9462207E-01 </wgt>
<wgt id='1915'> +4.2593192E-01 </wgt>
<wgt id='1916'> +4.3696635E-01 </wgt>
<wgt id='1917'> +3.1596457E-01 </wgt>
<wgt id='1918'> +3.1719684E-01 </wgt>
<wgt id='1919'> +3.9479334E-01 </wgt>
<wgt id='1920'> +4.0200557E-01 </wgt>
<wgt id='1921'> +4.0548708E-01 </wgt>
<wgt id='1922'> +4.0355851E-01 </wgt>
<wgt id='1923'> +3.7104108E-01 </wgt>
<wgt id='1924'> +3.8220905E-01 </wgt>
<wgt id='1925'> +3.7540690E-01 </wgt>
<wgt id='1926'> +3.8195851E-01 </wgt>
<wgt id='1927'> +4.0534430E-01 </wgt>
<wgt id='1928'> +3.8961342E-01 </wgt>
<wgt id='1929'> +3.7204337E-01 </wgt>
<wgt id='1930'> +3.6753324E-01 </wgt>
<wgt id='1931'> +3.8846731E-01 </wgt>
<wgt id='1932'> +4.0145613E-01 </wgt>
<wgt id='1933'> +3.7906067E-01 </wgt>
<wgt id='1934'> +4.0788028E-01 </wgt>
<wgt id='1935'> +4.2597850E-01 </wgt>
<wgt id='1936'> +4.0935591E-01 </wgt>
<wgt id='1937'> +4.5900451E-01 </wgt>
<wgt id='1938'> +3.7987620E-01 </wgt>
<wgt id='1939'> +4.0354713E-01 </wgt>
<wgt id='1940'> +3.5419211E-01 </wgt>
<wgt id='1941'> +3.7153205E-01 </wgt>
<wgt id='1942'> +4.0782958E-01 </wgt>
<wgt id='1943'> +3.6509275E-01 </wgt>
<wgt id='1944'> +4.0786574E-01 </wgt>
<wgt id='1945'> +3.9764387E-01 </wgt>
<wgt id='1946'> +4.1804995E-01 </wgt>
<wgt id='1947'> +3.8421054E-01 </wgt>
<wgt id='1948'> +4.0479792E-01 </wgt>
<wgt id='1949'> +3.9830176E-01 </wgt>
<wgt id='1950'> +4.1763139E-01 </wgt>
<wgt id='1951'> +3.6409700E-01 </wgt>
<wgt id='1952'> +3.9476686E-01 </wgt>
<wgt id='1953'> +3.8092696E-01 </wgt>
<wgt id='1954'> +4.1656165E-01 </wgt>
<wgt id='1955'> +4.4450651E-01 </wgt>
<wgt id='1956'> +4.0453557E-01 </wgt>
<wgt id='1957'> +4.0752559E-01 </wgt>
<wgt id='1958'> +3.5918372E-01 </wgt>
<wgt id='1959'> +3.9106821E-01 </wgt>
<wgt id='1960'> +3.7755850E-01 </wgt>
<wgt id='1961'> +3.9702540E-01 </wgt>
<wgt id='1962'> +3.8006126E-01 </wgt>
<wgt id='1963'> +4.2150580E-01 </wgt>
<wgt id='1964'> +3.8920070E-01 </wgt>
<wgt id='1965'> +4.0191521E-01 </wgt>
<wgt id='1966'> +4.0686177E-01 </wgt>
<wgt id='1967'> +3.7284160E-01 </wgt>
<wgt id='1968'> +4.0825662E-01 </wgt>
<wgt id='1969'> +4.0745053E-01 </wgt>
<wgt id='1970'> +3.9565157E-01 </wgt>
<wgt id='1971'> +4.0323120E-01 </wgt>
<wgt id='1972'> +3.5208394E-01 </wgt>
<wgt id='1973'> +3.7354678E-01 </wgt>
<wgt id='1974'> +3.9147849E-01 </wgt>
<wgt id='1975'> +4.1224069E-01 </wgt>
<wgt id='1976'> +4.3094754E-01 </wgt>
<wgt id='1977'> +3.9241049E-01 </wgt>
<wgt id='1978'> +4.1221766E-01 </wgt>
<wgt id='1979'> +3.8807601E-01 </wgt>
<wgt id='1980'> +4.2406727E-01 </wgt>
<wgt id='1981'> +3.9739287E-01 </wgt>
<wgt id='1982'> +3.6200758E-01 </wgt>
<wgt id='1983'> +5.0439546E-01 </wgt>
<wgt id='1984'> +3.5883649E-01 </wgt>
<wgt id='1985'> +4.0755963E-01 </wgt>
<wgt id='1986'> +3.8825913E-01 </wgt>
<wgt id='1987'> +3.7175427E-01 </wgt>
<wgt id='1988'> +3.8516225E-01 </wgt>
<wgt id='1989'> +3.8791418E-01 </wgt>
<wgt id='1990'> +3.8685292E-01 </wgt>
<wgt id='1991'> +3.9748689E-01 </wgt>
<wgt id='1992'> +3.3385955E-01 </wgt>
<wgt id='1993'> +4.0350210E-01 </wgt>
<wgt id='1994'> +4.0300173E-01 </wgt>
<wgt id='1995'> +3.8502685E-01 </wgt>
<wgt id='1996'> +3.8000012E-01 </wgt>
<wgt id='1997'> +3.8792025E-01 </wgt>
<wgt id='1998'> +3.9297394E-01 </wgt>
<wgt id='1999'> +3.9393222E-01 </wgt>
<wgt id='2000'> +3.7334485E-01 </wgt>
<wgt id='2001'> +3.5021797E-01 </wgt>
<wgt id='2002'> +3.9753939E-01 </wgt>
<wgt id='2003'> +3.9251143E-01 </wgt>
<wgt id='2004'> +4.1699476E-01 </wgt>
<wgt id='2005'> +3.8632563E-01 </wgt>
<wgt id='2006'> +4.2110995E-01 </wgt>
<wgt id='2007'> +3.7487737E-01 </wgt>
<wgt id='2008'> +4.1197153E-01 </wgt>
<wgt id='2009'> +3.7378219E-01 </wgt>
<wgt id='2010'> +3.9559361E-01 </wgt>
<wgt id='2011'> +3.7746169E-01 </wgt>
<wgt id='2012'> +4.1333293E-01 </wgt>
<wgt id='2013'> +3.6439728E-01 </wgt>
<wgt id='2014'> +4.3189304E-01 </wgt>
<wgt id='2015'> +3.6013251E-01 </wgt>
<wgt id='2016'> +4.1577362E-01 </wgt>
<wgt id='2017'> +3.9462207E-01 </wgt>
<wgt id='2018'> +4.2593192E-01 </wgt>
<wgt id='2019'> +4.3696635E-01 </wgt>
<wgt id='2020'> +3.9012625E-01 </wgt>
<wgt id='2021'> +4.0318647E-01 </wgt>
<wgt id='2022'> +3.8336232E-01 </wgt>
</rwgt>
</event>
<event>
13      1 +3.9556008E-01 7.63097900e+01 7.81860800e-03 1.29096600e-01
       21 -1    0    0  502  503 +0.0000000000e+00 +0.0000000000e+00 +9.8374756989e+02 9.8374756989e+02 0.0000000000e+00 0.0000e+00 -1.0000e+00
        2 -1    0    0  501    0 +0.0000000000e+00 +0.0000000000e+00 -1.5152033881e+02 1.5152033883e+02 2.5500000000e-03 0.0000e+00 -1.0000e+00
  8000001  2    1    2  502    0 -3.5569415805e+00 -1.4935346453e+01 +6.5298897662e+02 8.8692165707e+02 5.9999975483e+02 0.0000e+00 0.0000e+00
        1  1    1    2  501    0 -1.2191894424e+00 +2.1967176757e+01 -3.0928712308e+01 3.7955612865e+01 5.0400000000e-03 0.0000e+00 -1.0000e+00
       -5  1    1    2    0  503 +4.7761310229e+00 -7.0318303039e+00 +2.1016696677e+02 2.1039063878e+02 4.6700000000e+00 0.0000e+00 1.0000e+00
        6  2    3    3  502    0 -1.9695447988e+02 -3.6358011204e+01 +6.1364170751e+02 6.6817261104e+02 1.7258482209e+02 0.0000e+00 0.0000e+00
        5  1    6    6  502    0 -2.6964435636e+01 +1.8655444874e+01 +2.6579857745e+02 2.6785406304e+02 4.6700000000e+00 0.0000e+00 -1.0000e+00
       24  2    6    6    0    0 -1.6999004425e+02 -5.5013456078e+01 +3.4784313007e+02 4.0031854800e+02 8.5656297165e+01 0.0000e+00 0.0000e+00
       14  1    8    8    0    0 -1.0744714846e+02 -7.6448477300e+01 +2.3915658375e+02 2.7310278458e+02 0.0000000000e+00 0.0000e+00 -1.0000e+00
      -13  1    8    8    0    0 -6.2542895782e+01 +2.1435021222e+01 +1.0868654631e+02 1.2721576341e+02 1.0566000000e-01 0.0000e+00 1.0000e+00
       23  2    3    3    0    0 +1.9339753830e+02 +2.1422664751e+01 +3.9347269105e+01 2.1874904604e+02 9.1877087300e+01 0.0000e+00 0.0000e+00
       16  1   11   11    0    0 +2.4075795099e+01 -6.2912085263e+00 -2.5217686943e+01 3.5428166043e+01 0.0000000000e+00 0.0000e+00 -1.0000e+00
      -16  1   11   11    0    0 +1.6932174320e+02 +2.7713873277e+01 +6.4564956048e+01 1.8332088000e+02 0.0000000000e+00 0.0000e+00 1.0000e+00
<mgrwt>
<rscale>  1 0.40943446e+02</rscale>
<asrwt>0</asrwt>
<pdfrwt beam="1">  1       21 0.15134578e+00 0.76309792e+02</pdfrwt>
<pdfrwt beam="2">  1        2 0.23310822e-01 0.21967898e+02</pdfrwt>
<totfact> 0.85293941e+02</totfact>
</mgrwt>
<rwgt>
<wgt id='1001'> +3.9556008E-01 </wgt>
<wgt id='1002'> +2.4557764E-01 </wgt>
<wgt id='1003'> +2.4540371E-01 </wgt>
<wgt id='1004'> +2.8617687E-01 </wgt>
<wgt id='1005'> +2.2026038E-01 </wgt>
<wgt id='1006'> +3.5118357E-01 </wgt>
<wgt id='1007'> +2.2606732E-01 </wgt>
<wgt id='1008'> +2.2591499E-01 </wgt>
<wgt id='1009'> +2.6138547E-01 </wgt>
<wgt id='1010'> +2.0379122E-01 </wgt>
<wgt id='1011'> +4.5336827E-01 </wgt>
<wgt id='1012'> +2.6888083E-01 </wgt>
<wgt id='1013'> +2.6867929E-01 </wgt>
<wgt id='1014'> +3.1632759E-01 </wgt>
<wgt id='1015'> +2.3970110E-01 </wgt>
<wgt id='1016'> +3.7452943E-01 </wgt>
<wgt id='1017'> +2.3121197E-01 </wgt>
<wgt id='1018'> +2.3105097E-01 </wgt>
<wgt id='1019'> +2.6867929E-01 </wgt>
<wgt id='1020'> +2.0781175E-01 </wgt>
<wgt id='1021'> +3.3251228E-01 </wgt>
<wgt id='1022'> +2.1284296E-01 </wgt>
<wgt id='1023'> +2.1270207E-01 </wgt>
<wgt id='1024'> +2.4540371E-01 </wgt>
<wgt id='1025'> +1.9227339E-01 </wgt>
<wgt id='1026'> +4.2926415E-01 </wgt>
<wgt id='1027'> +2.5315198E-01 </wgt>
<wgt id='1028'> +2.5296526E-01 </wgt>
<wgt id='1029'> +2.9698653E-01 </wgt>
<wgt id='1030'> +2.2615373E-01 </wgt>
<wgt id='1031'> +4.1622050E-01 </wgt>
<wgt id='1032'> +2.6157454E-01 </wgt>
<wgt id='1033'> +2.6138547E-01 </wgt>
<wgt id='1034'> +3.0567953E-01 </wgt>
<wgt id='1035'> +2.3409563E-01 </wgt>
<wgt id='1036'> +3.6952618E-01 </wgt>
<wgt id='1037'> +2.4079331E-01 </wgt>
<wgt id='1038'> +2.4062756E-01 </wgt>
<wgt id='1039'> +2.7919863E-01 </wgt>
<wgt id='1040'> +2.1659198E-01 </wgt>
<wgt id='1041'> +4.7704807E-01 </wgt>
<wgt id='1042'> +2.8639569E-01 </wgt>
<wgt id='1043'> +2.8617687E-01 </wgt>
<wgt id='1044'> +3.3788500E-01 </wgt>
<wgt id='1045'> +2.5475748E-01 </wgt>
<wgt id='1046'> +3.9556008E-01 </wgt>
<wgt id='1047'> +3.9556008E-01 </wgt>
<wgt id='1048'> +3.9556008E-01 </wgt>
<wgt id='1049'> +3.9416530E-01 </wgt>
<wgt id='1050'> +3.9577090E-01 </wgt>
<wgt id='1051'> +3.9480599E-01 </wgt>
<wgt id='1052'> +3.9712295E-01 </wgt>
<wgt id='1053'> +3.9360983E-01 </wgt>
<wgt id='1054'> +3.9489159E-01 </wgt>
<wgt id='1055'> +3.9562818E-01 </wgt>
<wgt id='1056'> +3.9387119E-01 </wgt>
<wgt id='1057'> +3.9832754E-01 </wgt>
<wgt id='1058'> +3.9481208E-01 </wgt>
<wgt id='1059'> +3.9717636E-01 </wgt>
<wgt id='1060'> +3.9611146E-01 </wgt>
<wgt id='1061'> +3.9591365E-01 </wgt>
<wgt id='1062'> +3.9570754E-01 </wgt>
<wgt id='1063'> +3.9665522E-01 </wgt>
<wgt id='1064'> +3.9505662E-01 </wgt>
<wgt id='1065'> +3.9562053E-01 </wgt>
<wgt id='1066'> +3.9139432E-01 </wgt>
<wgt id='1067'> +3.9236122E-01 </wgt>
<wgt id='1068'> +3.9428182E-01 </wgt>
<wgt id='1069'> +3.9552988E-01 </wgt>
<wgt id='1070'> +3.9698094E-01 </wgt>
<wgt id='1071'> +3.9545998E-01 </wgt>
<wgt id='1072'> +3.9129476E-01 </wgt>
<wgt id='1073'> +3.9627240E-01 </wgt>
<wgt id='1074'> +3.9554802E-01 </wgt>
<wgt id='1075'> +4.0010676E-01 </wgt>
<wgt id='1076'> +3.9438090E-01 </wgt>
<wgt id='1077'> +3.9520130E-01 </wgt>
<wgt id='1078'> +3.9702765E-01 </wgt>
<wgt id='1079'> +3.9468955E-01 </wgt>
<wgt id='1080'> +3.9446789E-01 </wgt>
<wgt id='1081'> +3.9517412E-01 </wgt>
<wgt id='1082'> +3.9390883E-01 </wgt>
<wgt id='1083'> +3.9674450E-01 </wgt>
<wgt id='1084'> +3.9723499E-01 </wgt>
<wgt id='1085'> +3.9366383E-01 </wgt>
<wgt id='1086'> +3.9573735E-01 </wgt>
<wgt id='1087'> +3.9622189E-01 </wgt>
<wgt id='1088'> +3.9498830E-01 </wgt>
<wgt id='1089'> +3.9611688E-01 </wgt>
<wgt id='1090'> +3.9617317E-01 </wgt>
<wgt id='1091'> +3.9397857E-01 </wgt>
<wgt id='1092'> +3.9639397E-01 </wgt>
<wgt id='1093'> +3.9536439E-01 </wgt>
<wgt id='1094'> +3.9618422E-01 </wgt>
<wgt id='1095'> +3.9513035E-01 </wgt>
<wgt id='1096'> +3.9561200E-01 </wgt>
<wgt id='1097'> +3.9487318E-01 </wgt>
<wgt id='1098'> +3.9552682E-01 </wgt>
<wgt id='1099'> +3.9536488E-01 </wgt>
<wgt id='1100'> +3.9638871E-01 </wgt>
<wgt id='1101'> +3.9486823E-01 </wgt>
<wgt id='1102'> +3.9545407E-01 </wgt>
<wgt id='1103'> +3.9529734E-01 </wgt>
<wgt id='1104'> +3.9652758E-01 </wgt>
<wgt id='1105'> +3.9598839E-01 </wgt>
<wgt id='1106'> +3.9571795E-01 </wgt>
<wgt id='1107'> +3.9506608E-01 </wgt>
<wgt id='1108'> +3.9561158E-01 </wgt>
<wgt id='1109'> +3.9539138E-01 </wgt>
<wgt id='1110'> +3.9561317E-01 </wgt>
<wgt id='1111'> +3.9566589E-01 </wgt>
<wgt id='1112'> +3.9575608E-01 </wgt>
<wgt id='1113'> +3.9539520E-01 </wgt>
<wgt id='1114'> +3.9529347E-01 </wgt>
<wgt id='1115'> +3.9512664E-01 </wgt>
<wgt id='1116'> +3.9620339E-01 </wgt>
<wgt id='1117'> +3.9580453E-01 </wgt>
<wgt id='1118'> +3.9524168E-01 </wgt>
<wgt id='1119'> +3.9569629E-01 </wgt>
<wgt id='1120'> +3.9579240E-01 </wgt>
<wgt id='1121'> +3.9587236E-01 </wgt>
<wgt id='1122'> +3.9598214E-01 </wgt>
<wgt id='1123'> +3.9544159E-01 </wgt>
<wgt id='1124'> +3.9540287E-01 </wgt>
<wgt id='1125'> +3.9605108E-01 </wgt>
<wgt id='1126'> +3.9567978E-01 </wgt>
<wgt id='1127'> +3.9526265E-01 </wgt>
<wgt id='1128'> +3.9590245E-01 </wgt>
<wgt id='1129'> +3.9572536E-01 </wgt>
<wgt id='1130'> +3.9548077E-01 </wgt>
<wgt id='1131'> +3.9602835E-01 </wgt>
<wgt id='1132'> +3.9572218E-01 </wgt>
<wgt id='1133'> +3.9578404E-01 </wgt>
<wgt id='1134'> +3.9544597E-01 </wgt>
<wgt id='1135'> +3.9588072E-01 </wgt>
<wgt id='1136'> +3.9533720E-01 </wgt>
<wgt id='1137'> +3.9559185E-01 </wgt>
<wgt id='1138'> +3.9576086E-01 </wgt>
<wgt id='1139'> +3.9574759E-01 </wgt>
<wgt id='1140'> +3.9587930E-01 </wgt>
<wgt id='1141'> +3.9554361E-01 </wgt>
<wgt id='1142'> +3.9580769E-01 </wgt>
<wgt id='1143'> +3.9566952E-01 </wgt>
<wgt id='1144'> +3.9563673E-01 </wgt>
<wgt id='1145'> +3.9580247E-01 </wgt>
<wgt id='1146'> +3.9563994E-01 </wgt>
<wgt id='1147'> +3.9557708E-01 </wgt>
<wgt id='1148'> +3.9556008E-01 </wgt>
<wgt id='1149'> +3.9913777E-01 </wgt>
<wgt id='1150'> +4.2839190E-01 </wgt>
<wgt id='1151'> +3.9396709E-01 </wgt>
<wgt id='1152'> +3.9765570E-01 </wgt>
<wgt id='1153'> +3.9614701E-01 </wgt>
<wgt id='1154'> +4.0049860E-01 </wgt>
<wgt id='1155'> +4.0428547E-01 </wgt>
<wgt id='1156'> +3.9058930E-01 </wgt>
<wgt id='1157'> +3.8395262E-01 </wgt>
<wgt id='1158'> +3.8162688E-01 </wgt>
<wgt id='1159'> +4.1266181E-01 </wgt>
<wgt id='1160'> +4.0194729E-01 </wgt>
<wgt id='1161'> +3.8760800E-01 </wgt>
<wgt id='1162'> +3.9554464E-01 </wgt>
<wgt id='1163'> +3.9975777E-01 </wgt>
<wgt id='1164'> +3.8782076E-01 </wgt>
<wgt id='1165'> +3.9585801E-01 </wgt>
<wgt id='1166'> +4.0296150E-01 </wgt>
<wgt id='1167'> +3.8961102E-01 </wgt>
<wgt id='1168'> +3.9515750E-01 </wgt>
<wgt id='1169'> +3.8579296E-01 </wgt>
<wgt id='1170'> +3.9101254E-01 </wgt>
<wgt id='1171'> +3.9158619E-01 </wgt>
<wgt id='1172'> +3.9721399E-01 </wgt>
<wgt id='1173'> +4.0211241E-01 </wgt>
<wgt id='1174'> +3.8437687E-01 </wgt>
<wgt id='1175'> +4.0249021E-01 </wgt>
<wgt id='1176'> +4.0892566E-01 </wgt>
<wgt id='1177'> +3.8824987E-01 </wgt>
<wgt id='1178'> +4.0644956E-01 </wgt>
<wgt id='1179'> +3.8848827E-01 </wgt>
<wgt id='1180'> +4.1461596E-01 </wgt>
<wgt id='1181'> +3.8110473E-01 </wgt>
<wgt id='1182'> +3.9037061E-01 </wgt>
<wgt id='1183'> +4.0401412E-01 </wgt>
<wgt id='1184'> +4.1459247E-01 </wgt>
<wgt id='1185'> +3.9697411E-01 </wgt>
<wgt id='1186'> +3.9376292E-01 </wgt>
<wgt id='1187'> +3.9593599E-01 </wgt>
<wgt id='1188'> +3.9555184E-01 </wgt>
<wgt id='1189'> +4.0065721E-01 </wgt>
<wgt id='1190'> +3.9649846E-01 </wgt>
<wgt id='1191'> +4.0644893E-01 </wgt>
<wgt id='1192'> +4.0932131E-01 </wgt>
<wgt id='1193'> +4.1150355E-01 </wgt>
<wgt id='1194'> +4.0581289E-01 </wgt>
<wgt id='1195'> +4.0748101E-01 </wgt>
<wgt id='1196'> +4.0587185E-01 </wgt>
<wgt id='1197'> +4.0613315E-01 </wgt>
<wgt id='1198'> +4.0245871E-01 </wgt>
<wgt id='1199'> +4.1409634E-01 </wgt>
<wgt id='1200'> +4.0310974E-01 </wgt>
<wgt id='1201'> +3.8899416E-01 </wgt>
<wgt id='1202'> +4.0631418E-01 </wgt>
<wgt id='1203'> +4.0196154E-01 </wgt>
<wgt id='1204'> +4.1219047E-01 </wgt>
<wgt id='1205'> +3.9428863E-01 </wgt>
<wgt id='1206'> +3.9986961E-01 </wgt>
<wgt id='1207'> +3.9903625E-01 </wgt>
<wgt id='1208'> +3.8051786E-01 </wgt>
<wgt id='1209'> +4.0108674E-01 </wgt>
<wgt id='1210'> +3.9702725E-01 </wgt>
<wgt id='1211'> +4.0395899E-01 </wgt>
<wgt id='1212'> +4.1061217E-01 </wgt>
<wgt id='1213'> +4.0563168E-01 </wgt>
<wgt id='1214'> +3.9042411E-01 </wgt>
<wgt id='1215'> +4.0646093E-01 </wgt>
<wgt id='1216'> +4.1601232E-01 </wgt>
<wgt id='1217'> +3.9181019E-01 </wgt>
<wgt id='1218'> +3.9934357E-01 </wgt>
<wgt id='1219'> +4.1371129E-01 </wgt>
<wgt id='1220'> +3.8916364E-01 </wgt>
<wgt id='1221'> +4.1798403E-01 </wgt>
<wgt id='1222'> +3.7335633E-01 </wgt>
<wgt id='1223'> +3.8105776E-01 </wgt>
<wgt id='1224'> +3.9364146E-01 </wgt>
<wgt id='1225'> +4.1445314E-01 </wgt>
<wgt id='1226'> +3.9685375E-01 </wgt>
<wgt id='1227'> +3.9090637E-01 </wgt>
<wgt id='1228'> +3.9359384E-01 </wgt>
<wgt id='1229'> +4.2392115E-01 </wgt>
<wgt id='1230'> +4.0694244E-01 </wgt>
<wgt id='1231'> +3.9585801E-01 </wgt>
<wgt id='1232'> +4.0434475E-01 </wgt>
<wgt id='1233'> +3.8839581E-01 </wgt>
<wgt id='1234'> +3.9122936E-01 </wgt>
<wgt id='1235'> +4.1951896E-01 </wgt>
<wgt id='1236'> +3.8847803E-01 </wgt>
<wgt id='1237'> +4.0232259E-01 </wgt>
<wgt id='1238'> +3.9139467E-01 </wgt>
<wgt id='1239'> +3.9926569E-01 </wgt>
<wgt id='1240'> +4.0199804E-01 </wgt>
<wgt id='1241'> +3.9742666E-01 </wgt>
<wgt id='1242'> +3.9439982E-01 </wgt>
<wgt id='1243'> +4.1018729E-01 </wgt>
<wgt id='1244'> +3.9021563E-01 </wgt>
<wgt id='1245'> +3.9371204E-01 </wgt>
<wgt id='1246'> +4.2619392E-01 </wgt>
<wgt id='1247'> +3.9334995E-01 </wgt>
<wgt id='1248'> +3.8713312E-01 </wgt>
<wgt id='1249'> +3.9051934E-01 </wgt>
<wgt id='1250'> +3.9818078E-01 </wgt>
<wgt id='1251'> +3.9551969E-01 </wgt>
<wgt id='1252'> +4.2699528E-01 </wgt>
<wgt id='1253'> +4.1707377E-01 </wgt>
<wgt id='1254'> +4.5609815E-01 </wgt>
<wgt id='1255'> +4.3488121E-01 </wgt>
<wgt id='1256'> +4.3418765E-01 </wgt>
<wgt id='1257'> +4.3528372E-01 </wgt>
<wgt id='1258'> +4.3434716E-01 </wgt>
<wgt id='1259'> +4.3516352E-01 </wgt>
<wgt id='1260'> +4.3520008E-01 </wgt>
<wgt id='1261'> +4.3444438E-01 </wgt>
<wgt id='1262'> +4.3518503E-01 </wgt>
<wgt id='1263'> +4.3468514E-01 </wgt>
<wgt id='1264'> +4.3502794E-01 </wgt>
<wgt id='1265'> +4.3479161E-01 </wgt>
<wgt id='1266'> +4.3624976E-01 </wgt>
<wgt id='1267'> +4.3352779E-01 </wgt>
<wgt id='1268'> +4.3671333E-01 </wgt>
<wgt id='1269'> +4.3296448E-01 </wgt>
<wgt id='1270'> +4.2853843E-01 </wgt>
<wgt id='1271'> +4.4197696E-01 </wgt>
<wgt id='1272'> +4.3231257E-01 </wgt>
<wgt id='1273'> +4.3685542E-01 </wgt>
<wgt id='1274'> +4.3597153E-01 </wgt>
<wgt id='1275'> +4.3347797E-01 </wgt>
<wgt id='1276'> +4.4097391E-01 </wgt>
<wgt id='1277'> +4.2843090E-01 </wgt>
<wgt id='1278'> +4.3248983E-01 </wgt>
<wgt id='1279'> +4.3666334E-01 </wgt>
<wgt id='1280'> +4.3458982E-01 </wgt>
<wgt id='1281'> +4.3592951E-01 </wgt>
<wgt id='1282'> +4.3298337E-01 </wgt>
<wgt id='1283'> +4.3555593E-01 </wgt>
<wgt id='1284'> +4.3536181E-01 </wgt>
<wgt id='1285'> +4.3452173E-01 </wgt>
<wgt id='1286'> +4.3421117E-01 </wgt>
<wgt id='1287'> +4.3493598E-01 </wgt>
<wgt id='1288'> +4.3618018E-01 </wgt>
<wgt id='1289'> +4.3448650E-01 </wgt>
<wgt id='1290'> +4.3509122E-01 </wgt>
<wgt id='1291'> +4.3481895E-01 </wgt>
<wgt id='1292'> +4.3836704E-01 </wgt>
<wgt id='1293'> +4.3052151E-01 </wgt>
<wgt id='1294'> +4.3434813E-01 </wgt>
<wgt id='1295'> +4.3321219E-01 </wgt>
<wgt id='1296'> +4.1281217E-01 </wgt>
<wgt id='1297'> +4.1406453E-01 </wgt>
<wgt id='1298'> +4.1179439E-01 </wgt>
<wgt id='1299'> +4.1400449E-01 </wgt>
<wgt id='1300'> +4.1148701E-01 </wgt>
<wgt id='1301'> +4.1219615E-01 </wgt>
<wgt id='1302'> +4.1372725E-01 </wgt>
<wgt id='1303'> +4.1279670E-01 </wgt>
<wgt id='1304'> +4.1282782E-01 </wgt>
<wgt id='1305'> +4.1271831E-01 </wgt>
<wgt id='1306'> +4.1294837E-01 </wgt>
<wgt id='1307'> +4.1223058E-01 </wgt>
<wgt id='1308'> +4.1317142E-01 </wgt>
<wgt id='1309'> +4.1293816E-01 </wgt>
<wgt id='1310'> +4.1265458E-01 </wgt>
<wgt id='1311'> +4.1285978E-01 </wgt>
<wgt id='1312'> +4.1277480E-01 </wgt>
<wgt id='1313'> +4.0831347E-01 </wgt>
<wgt id='1314'> +4.1833512E-01 </wgt>
<wgt id='1315'> +4.1407161E-01 </wgt>
<wgt id='1316'> +4.1162123E-01 </wgt>
<wgt id='1317'> +4.1828733E-01 </wgt>
<wgt id='1318'> +4.0353526E-01 </wgt>
<wgt id='1319'> +4.0665160E-01 </wgt>
<wgt id='1320'> +4.1667819E-01 </wgt>
<wgt id='1321'> +4.0949733E-01 </wgt>
<wgt id='1322'> +4.1440871E-01 </wgt>
<wgt id='1323'> +4.1152060E-01 </wgt>
<wgt id='1324'> +4.1441176E-01 </wgt>
<wgt id='1325'> +4.1159167E-01 </wgt>
<wgt id='1326'> +4.1416272E-01 </wgt>
<wgt id='1327'> +4.1222651E-01 </wgt>
<wgt id='1328'> +4.1305135E-01 </wgt>
<wgt id='1329'> +4.1284702E-01 </wgt>
<wgt id='1330'> +4.1285664E-01 </wgt>
<wgt id='1331'> +4.1188714E-01 </wgt>
<wgt id='1332'> +4.1300501E-01 </wgt>
<wgt id='1333'> +4.1129255E-01 </wgt>
<wgt id='1334'> +4.1640725E-01 </wgt>
<wgt id='1335'> +4.1306349E-01 </wgt>
<wgt id='1336'> +4.1273080E-01 </wgt>
<wgt id='1337'> +4.1281217E-01 </wgt>
<wgt id='1338'> +4.1236072E-01 </wgt>
<wgt id='1339'> +4.1249109E-01 </wgt>
<wgt id='1340'> +4.1257714E-01 </wgt>
<wgt id='1341'> +4.1275143E-01 </wgt>
<wgt id='1342'> +4.1279201E-01 </wgt>
<wgt id='1343'> +4.1285644E-01 </wgt>
<wgt id='1344'> +3.9392835E-01 </wgt>
<wgt id='1345'> +3.9528964E-01 </wgt>
<wgt id='1346'> +3.9257278E-01 </wgt>
<wgt id='1347'> +3.9286317E-01 </wgt>
<wgt id='1348'> +3.9469383E-01 </wgt>
<wgt id='1349'> +3.9351870E-01 </wgt>
<wgt id='1350'> +3.9426870E-01 </wgt>
<wgt id='1351'> +3.9389995E-01 </wgt>
<wgt id='1352'> +3.9396551E-01 </wgt>
<wgt id='1353'> +3.9504822E-01 </wgt>
<wgt id='1354'> +3.9312727E-01 </wgt>
<wgt id='1355'> +3.9405196E-01 </wgt>
<wgt id='1356'> +3.9382414E-01 </wgt>
<wgt id='1357'> +3.9356094E-01 </wgt>
<wgt id='1358'> +3.9413697E-01 </wgt>
<wgt id='1359'> +3.9381307E-01 </wgt>
<wgt id='1360'> +3.9414170E-01 </wgt>
<wgt id='1361'> +3.8541048E-01 </wgt>
<wgt id='1362'> +4.0137998E-01 </wgt>
<wgt id='1363'> +3.9177174E-01 </wgt>
<wgt id='1364'> +3.9661128E-01 </wgt>
<wgt id='1365'> +3.9050626E-01 </wgt>
<wgt id='1366'> +3.9534127E-01 </wgt>
<wgt id='1367'> +3.9080920E-01 </wgt>
<wgt id='1368'> +3.9539185E-01 </wgt>
<wgt id='1369'> +3.9789350E-01 </wgt>
<wgt id='1370'> +3.9026636E-01 </wgt>
<wgt id='1371'> +3.9359034E-01 </wgt>
<wgt id='1372'> +3.9459384E-01 </wgt>
<wgt id='1373'> +3.9413121E-01 </wgt>
<wgt id='1374'> +3.9483198E-01 </wgt>
<wgt id='1375'> +3.9295714E-01 </wgt>
<wgt id='1376'> +3.9427939E-01 </wgt>
<wgt id='1377'> +3.9376952E-01 </wgt>
<wgt id='1378'> +3.9440568E-01 </wgt>
<wgt id='1379'> +3.9423664E-01 </wgt>
<wgt id='1380'> +3.9290720E-01 </wgt>
<wgt id='1381'> +3.9376495E-01 </wgt>
<wgt id='1382'> +3.9573973E-01 </wgt>
<wgt id='1383'> +3.9377904E-01 </wgt>
<wgt id='1384'> +3.9473329E-01 </wgt>
<wgt id='1385'> +3.9392835E-01 </wgt>
<wgt id='1386'> +3.9351386E-01 </wgt>
<wgt id='1387'> +3.9363729E-01 </wgt>
<wgt id='1388'> +3.9371281E-01 </wgt>
<wgt id='1389'> +3.9383930E-01 </wgt>
<wgt id='1390'> +3.9386062E-01 </wgt>
<wgt id='1391'> +3.9383529E-01 </wgt>
<wgt id='1392'> +4.3101061E-01 </wgt>
<wgt id='1393'> +4.3019731E-01 </wgt>
<wgt id='1394'> +4.3188496E-01 </wgt>
<wgt id='1395'> +4.3035392E-01 </wgt>
<wgt id='1396'> +4.3147956E-01 </wgt>
<wgt id='1397'> +4.3140363E-01 </wgt>
<wgt id='1398'> +4.3063251E-01 </wgt>
<wgt id='1399'> +4.3021242E-01 </wgt>
<wgt id='1400'> +4.3199257E-01 </wgt>
<wgt id='1401'> +4.3050146E-01 </wgt>
<wgt id='1402'> +4.3164153E-01 </wgt>
<wgt id='1403'> +4.3089376E-01 </wgt>
<wgt id='1404'> +4.3123891E-01 </wgt>
<wgt id='1405'> +4.3067660E-01 </wgt>
<wgt id='1406'> +4.3147301E-01 </wgt>
<wgt id='1407'> +4.3128886E-01 </wgt>
<wgt id='1408'> +4.3082043E-01 </wgt>
<wgt id='1409'> +4.3044617E-01 </wgt>
<wgt id='1410'> +4.3162577E-01 </wgt>
<wgt id='1411'> +4.2927159E-01 </wgt>
<wgt id='1412'> +4.3233574E-01 </wgt>
<wgt id='1413'> +4.3023156E-01 </wgt>
<wgt id='1414'> +4.3182551E-01 </wgt>
<wgt id='1415'> +4.3099738E-01 </wgt>
<wgt id='1416'> +4.3087520E-01 </wgt>
<wgt id='1417'> +4.2649875E-01 </wgt>
<wgt id='1418'> +4.3648917E-01 </wgt>
<wgt id='1419'> +4.3176221E-01 </wgt>
<wgt id='1420'> +4.3017689E-01 </wgt>
<wgt id='1421'> +4.2671772E-01 </wgt>
<wgt id='1422'> +4.3607298E-01 </wgt>
<wgt id='1423'> +4.2141107E-01 </wgt>
<wgt id='1424'> +4.3863595E-01 </wgt>
<wgt id='1425'> +4.3149673E-01 </wgt>
<wgt id='1426'> +4.3034647E-01 </wgt>
<wgt id='1427'> +4.3079681E-01 </wgt>
<wgt id='1428'> +4.3200250E-01 </wgt>
<wgt id='1429'> +4.3021763E-01 </wgt>
<wgt id='1430'> +4.3166848E-01 </wgt>
<wgt id='1431'> +4.2965920E-01 </wgt>
<wgt id='1432'> +4.3232941E-01 </wgt>
<wgt id='1433'> +4.2629119E-01 </wgt>
<wgt id='1434'> +4.3727120E-01 </wgt>
<wgt id='1435'> +4.3267559E-01 </wgt>
<wgt id='1436'> +4.3003812E-01 </wgt>
<wgt id='1437'> +4.2990047E-01 </wgt>
<wgt id='1438'> +4.3417086E-01 </wgt>
<wgt id='1439'> +4.3128349E-01 </wgt>
<wgt id='1440'> +4.3236813E-01 </wgt>
<wgt id='1441'> +4.2990096E-01 </wgt>
<wgt id='1442'> +4.3133808E-01 </wgt>
<wgt id='1443'> +4.2216324E-01 </wgt>
<wgt id='1444'> +4.2136826E-01 </wgt>
<wgt id='1445'> +4.2300913E-01 </wgt>
<wgt id='1446'> +4.2148914E-01 </wgt>
<wgt id='1447'> +4.2261031E-01 </wgt>
<wgt id='1448'> +4.2262991E-01 </wgt>
<wgt id='1449'> +4.2172525E-01 </wgt>
<wgt id='1450'> +4.2134498E-01 </wgt>
<wgt id='1451'> +4.2307522E-01 </wgt>
<wgt id='1452'> +4.2162312E-01 </wgt>
<wgt id='1453'> +4.2268394E-01 </wgt>
<wgt id='1454'> +4.2200460E-01 </wgt>
<wgt id='1455'> +4.2250225E-01 </wgt>
<wgt id='1456'> +4.2178445E-01 </wgt>
<wgt id='1457'> +4.2283083E-01 </wgt>
<wgt id='1458'> +4.2248252E-01 </wgt>
<wgt id='1459'> +4.2198201E-01 </wgt>
<wgt id='1460'> +4.2122736E-01 </wgt>
<wgt id='1461'> +4.2322652E-01 </wgt>
<wgt id='1462'> +4.2066078E-01 </wgt>
<wgt id='1463'> +4.2345991E-01 </wgt>
<wgt id='1464'> +4.2156083E-01 </wgt>
<wgt id='1465'> +4.2295252E-01 </wgt>
<wgt id='1466'> +4.2282705E-01 </wgt>
<wgt id='1467'> +4.2156658E-01 </wgt>
<wgt id='1468'> +4.2840630E-01 </wgt>
<wgt id='1469'> +4.1597726E-01 </wgt>
<wgt id='1470'> +4.2303692E-01 </wgt>
<wgt id='1471'> +4.2140281E-01 </wgt>
<wgt id='1472'> +4.1896502E-01 </wgt>
<wgt id='1473'> +4.2600039E-01 </wgt>
<wgt id='1474'> +4.1517987E-01 </wgt>
<wgt id='1475'> +4.3036598E-01 </wgt>
<wgt id='1476'> +4.2411756E-01 </wgt>
<wgt id='1477'> +4.2029254E-01 </wgt>
<wgt id='1478'> +4.2198789E-01 </wgt>
<wgt id='1479'> +4.2311522E-01 </wgt>
<wgt id='1480'> +4.2152801E-01 </wgt>
<wgt id='1481'> +4.2262046E-01 </wgt>
<wgt id='1482'> +4.2087329E-01 </wgt>
<wgt id='1483'> +4.2362056E-01 </wgt>
<wgt id='1484'> +4.1736829E-01 </wgt>
<wgt id='1485'> +4.2804513E-01 </wgt>
<wgt id='1486'> +4.2409349E-01 </wgt>
<wgt id='1487'> +4.2128186E-01 </wgt>
<wgt id='1488'> +4.2090851E-01 </wgt>
<wgt id='1489'> +4.2550413E-01 </wgt>
<wgt id='1490'> +4.2223474E-01 </wgt>
<wgt id='1491'> +4.2394132E-01 </wgt>
<wgt id='1492'> +4.2069169E-01 </wgt>
<wgt id='1493'> +4.2270579E-01 </wgt>
<wgt id='1494'> +4.1493180E-01 </wgt>
<wgt id='1495'> +4.0287462E-01 </wgt>
<wgt id='1496'> +4.0676822E-01 </wgt>
<wgt id='1497'> +4.1102381E-01 </wgt>
<wgt id='1498'> +4.1999198E-01 </wgt>
<wgt id='1499'> +4.1542042E-01 </wgt>
<wgt id='1500'> +4.1375781E-01 </wgt>
<wgt id='1501'> +4.1448989E-01 </wgt>
<wgt id='1502'> +4.1492043E-01 </wgt>
<wgt id='1503'> +4.1518067E-01 </wgt>
<wgt id='1504'> +4.1539434E-01 </wgt>
<wgt id='1505'> +4.1531356E-01 </wgt>
<wgt id='1506'> +4.1508117E-01 </wgt>
<wgt id='1507'> +4.1470806E-01 </wgt>
<wgt id='1508'> +4.1542042E-01 </wgt>
<wgt id='1509'> +4.1534351E-01 </wgt>
<wgt id='1510'> +4.1539693E-01 </wgt>
<wgt id='1511'> +4.1551700E-01 </wgt>
<wgt id='1512'> +4.1578645E-01 </wgt>
<wgt id='1513'> +4.1119415E-01 </wgt>
<wgt id='1514'> +4.1026307E-01 </wgt>
<wgt id='1515'> +4.1239439E-01 </wgt>
<wgt id='1516'> +4.1151770E-01 </wgt>
<wgt id='1517'> +4.1087253E-01 </wgt>
<wgt id='1518'> +4.1046484E-01 </wgt>
<wgt id='1519'> +4.1148808E-01 </wgt>
<wgt id='1520'> +4.1066939E-01 </wgt>
<wgt id='1521'> +4.1171138E-01 </wgt>
<wgt id='1522'> +4.1102734E-01 </wgt>
<wgt id='1523'> +4.1135167E-01 </wgt>
<wgt id='1524'> +4.1214768E-01 </wgt>
<wgt id='1525'> +4.1079758E-01 </wgt>
<wgt id='1526'> +4.1095979E-01 </wgt>
<wgt id='1527'> +4.1148449E-01 </wgt>
<wgt id='1528'> +4.1112490E-01 </wgt>
<wgt id='1529'> +4.1127400E-01 </wgt>
<wgt id='1530'> +4.0910752E-01 </wgt>
<wgt id='1531'> +4.1236191E-01 </wgt>
<wgt id='1532'> +4.1229450E-01 </wgt>
<wgt id='1533'> +4.0969327E-01 </wgt>
<wgt id='1534'> +4.1019132E-01 </wgt>
<wgt id='1535'> +4.1189881E-01 </wgt>
<wgt id='1536'> +4.1068965E-01 </wgt>
<wgt id='1537'> +4.1169648E-01 </wgt>
<wgt id='1538'> +4.1024148E-01 </wgt>
<wgt id='1539'> +4.1332356E-01 </wgt>
<wgt id='1540'> +4.1108423E-01 </wgt>
<wgt id='1541'> +4.1083910E-01 </wgt>
<wgt id='1542'> +4.1439904E-01 </wgt>
<wgt id='1543'> +4.0316934E-01 </wgt>
<wgt id='1544'> +4.0801127E-01 </wgt>
<wgt id='1545'> +4.1810485E-01 </wgt>
<wgt id='1546'> +4.1167946E-01 </wgt>
<wgt id='1547'> +4.1028300E-01 </wgt>
<wgt id='1548'> +4.1046675E-01 </wgt>
<wgt id='1549'> +4.1165697E-01 </wgt>
<wgt id='1550'> +4.1042294E-01 </wgt>
<wgt id='1551'> +4.1231237E-01 </wgt>
<wgt id='1552'> +4.0938926E-01 </wgt>
<wgt id='1553'> +4.1255841E-01 </wgt>
<wgt id='1554'> +4.1507529E-01 </wgt>
<wgt id='1555'> +4.0533176E-01 </wgt>
<wgt id='1556'> +4.1170310E-01 </wgt>
<wgt id='1557'> +4.0758603E-01 </wgt>
<wgt id='1558'> +4.0941248E-01 </wgt>
<wgt id='1559'> +4.1305284E-01 </wgt>
<wgt id='1560'> +4.1339883E-01 </wgt>
<wgt id='1561'> +4.1023208E-01 </wgt>
<wgt id='1562'> +4.1198850E-01 </wgt>
<wgt id='1563'> +4.1053468E-01 </wgt>
<wgt id='1564'> +4.1119415E-01 </wgt>
<wgt id='1565'> +4.0504370E-01 </wgt>
<wgt id='1566'> +4.1782856E-01 </wgt>
<wgt id='1567'> +4.1156869E-01 </wgt>
<wgt id='1568'> +4.1215617E-01 </wgt>
<wgt id='1569'> +4.1231165E-01 </wgt>
<wgt id='1570'> +4.1247873E-01 </wgt>
<wgt id='1571'> +4.1207119E-01 </wgt>
<wgt id='1572'> +4.1191777E-01 </wgt>
<wgt id='1573'> +4.1085466E-01 </wgt>
<wgt id='1574'> +4.0987986E-01 </wgt>
<wgt id='1575'> +4.0929615E-01 </wgt>
<wgt id='1576'> +4.1156869E-01 </wgt>
<wgt id='1577'> +4.1119533E-01 </wgt>
<wgt id='1578'> +4.1117093E-01 </wgt>
<wgt id='1579'> +4.1183011E-01 </wgt>
<wgt id='1580'> +4.1214432E-01 </wgt>
<wgt id='1581'> +4.0820192E-01 </wgt>
<wgt id='1582'> +4.0769218E-01 </wgt>
<wgt id='1583'> +4.0668004E-01 </wgt>
<wgt id='1584'> +4.0775577E-01 </wgt>
<wgt id='1585'> +4.0640474E-01 </wgt>
<wgt id='1586'> +4.0103009E-01 </wgt>
<wgt id='1587'> +4.1050794E-01 </wgt>
<wgt id='1588'> +4.0409148E-01 </wgt>
<wgt id='1589'> +4.0808474E-01 </wgt>
<wgt id='1590'> +4.1135821E-01 </wgt>
<wgt id='1591'> +4.0846247E-01 </wgt>
<wgt id='1592'> +4.0113392E-01 </wgt>
<wgt id='1593'> +4.0748886E-01 </wgt>
<wgt id='1594'> +4.0059312E-01 </wgt>
<wgt id='1595'> +4.0979373E-01 </wgt>
<wgt id='1596'> +4.0903892E-01 </wgt>
<wgt id='1597'> +4.1065729E-01 </wgt>
<wgt id='1598'> +4.0417073E-01 </wgt>
<wgt id='1599'> +4.0584747E-01 </wgt>
<wgt id='1600'> +4.0750493E-01 </wgt>
<wgt id='1601'> +4.0690040E-01 </wgt>
<wgt id='1602'> +4.0772325E-01 </wgt>
<wgt id='1603'> +4.0903307E-01 </wgt>
<wgt id='1604'> +4.0700857E-01 </wgt>
<wgt id='1605'> +4.0833591E-01 </wgt>
<wgt id='1606'> +4.0780563E-01 </wgt>
<wgt id='1607'> +4.0820371E-01 </wgt>
<wgt id='1608'> +4.0650184E-01 </wgt>
<wgt id='1609'> +4.0701999E-01 </wgt>
<wgt id='1610'> +4.0836181E-01 </wgt>
<wgt id='1611'> +4.0661235E-01 </wgt>
<wgt id='1612'> +3.9261558E-01 </wgt>
<wgt id='1613'> +3.9251196E-01 </wgt>
<wgt id='1614'> +3.9242677E-01 </wgt>
<wgt id='1615'> +3.9192084E-01 </wgt>
<wgt id='1616'> +3.9366587E-01 </wgt>
<wgt id='1617'> +3.9328722E-01 </wgt>
<wgt id='1618'> +3.9184932E-01 </wgt>
<wgt id='1619'> +3.9295313E-01 </wgt>
<wgt id='1620'> +3.9266336E-01 </wgt>
<wgt id='1621'> +3.9399995E-01 </wgt>
<wgt id='1622'> +3.9113613E-01 </wgt>
<wgt id='1623'> +3.9156120E-01 </wgt>
<wgt id='1624'> +3.9258476E-01 </wgt>
<wgt id='1625'> +3.9043532E-01 </wgt>
<wgt id='1626'> +3.9324183E-01 </wgt>
<wgt id='1627'> +3.9234167E-01 </wgt>
<wgt id='1628'> +3.9492941E-01 </wgt>
<wgt id='1629'> +3.9191208E-01 </wgt>
<wgt id='1630'> +3.9037639E-01 </wgt>
<wgt id='1631'> +3.9340644E-01 </wgt>
<wgt id='1632'> +3.9107022E-01 </wgt>
<wgt id='1633'> +3.9515375E-01 </wgt>
<wgt id='1634'> +3.9172908E-01 </wgt>
<wgt id='1635'> +3.9100678E-01 </wgt>
<wgt id='1636'> +3.9181479E-01 </wgt>
<wgt id='1637'> +3.9224387E-01 </wgt>
<wgt id='1638'> +3.8993389E-01 </wgt>
<wgt id='1639'> +3.9133483E-01 </wgt>
<wgt id='1640'> +3.9170077E-01 </wgt>
<wgt id='1641'> +3.9542829E-01 </wgt>
<wgt id='1642'> +3.9652684E-01 </wgt>
<wgt id='1643'> +3.9322907E-01 </wgt>
<wgt id='1644'> +3.9421888E-01 </wgt>
<wgt id='1645'> +3.9281657E-01 </wgt>
<wgt id='1646'> +3.9125449E-01 </wgt>
<wgt id='1647'> +3.9225952E-01 </wgt>
<wgt id='1648'> +3.9162787E-01 </wgt>
<wgt id='1649'> +3.9046258E-01 </wgt>
<wgt id='1650'> +3.9297528E-01 </wgt>
<wgt id='1651'> +3.9444033E-01 </wgt>
<wgt id='1652'> +3.9400860E-01 </wgt>
<wgt id='1653'> +3.9282554E-01 </wgt>
<wgt id='1654'> +3.9003604E-01 </wgt>
<wgt id='1655'> +3.9351898E-01 </wgt>
<wgt id='1656'> +3.9224168E-01 </wgt>
<wgt id='1657'> +3.9266491E-01 </wgt>
<wgt id='1658'> +3.9325223E-01 </wgt>
<wgt id='1659'> +3.9325447E-01 </wgt>
<wgt id='1660'> +3.9234075E-01 </wgt>
<wgt id='1661'> +3.9122099E-01 </wgt>
<wgt id='1662'> +3.9263244E-01 </wgt>
<wgt id='1663'> +3.9395806E-01 </wgt>
<wgt id='1664'> +3.9250604E-01 </wgt>
<wgt id='1665'> +3.9340689E-01 </wgt>
<wgt id='1666'> +3.9319873E-01 </wgt>
<wgt id='1667'> +3.9342656E-01 </wgt>
<wgt id='1668'> +3.9197882E-01 </wgt>
<wgt id='1669'> +3.9298315E-01 </wgt>
<wgt id='1670'> +3.9290977E-01 </wgt>
<wgt id='1671'> +3.9187826E-01 </wgt>
<wgt id='1672'> +3.9261796E-01 </wgt>
<wgt id='1673'> +3.9207270E-01 </wgt>
<wgt id='1674'> +3.9216329E-01 </wgt>
<wgt id='1675'> +3.9272350E-01 </wgt>
<wgt id='1676'> +3.9229517E-01 </wgt>
<wgt id='1677'> +3.9282460E-01 </wgt>
<wgt id='1678'> +3.9282035E-01 </wgt>
<wgt id='1679'> +3.9243617E-01 </wgt>
<wgt id='1680'> +3.9312134E-01 </wgt>
<wgt id='1681'> +3.9317621E-01 </wgt>
<wgt id='1682'> +3.9200463E-01 </wgt>
<wgt id='1683'> +3.9214514E-01 </wgt>
<wgt id='1684'> +3.9309961E-01 </wgt>
<wgt id='1685'> +3.9298480E-01 </wgt>
<wgt id='1686'> +3.9248334E-01 </wgt>
<wgt id='1687'> +3.9273675E-01 </wgt>
<wgt id='1688'> +3.9271698E-01 </wgt>
<wgt id='1689'> +3.9246577E-01 </wgt>
<wgt id='1690'> +3.9293088E-01 </wgt>
<wgt id='1691'> +3.9280658E-01 </wgt>
<wgt id='1692'> +3.9280006E-01 </wgt>
<wgt id='1693'> +3.9271193E-01 </wgt>
<wgt id='1694'> +3.9267620E-01 </wgt>
<wgt id='1695'> +3.9294058E-01 </wgt>
<wgt id='1696'> +3.9232314E-01 </wgt>
<wgt id='1697'> +3.9263079E-01 </wgt>
<wgt id='1698'> +3.9252317E-01 </wgt>
<wgt id='1699'> +3.9226343E-01 </wgt>
<wgt id='1700'> +3.9270156E-01 </wgt>
<wgt id='1701'> +3.9229102E-01 </wgt>
<wgt id='1702'> +3.9264035E-01 </wgt>
<wgt id='1703'> +3.9312622E-01 </wgt>
<wgt id='1704'> +3.9253238E-01 </wgt>
<wgt id='1705'> +3.9257662E-01 </wgt>
<wgt id='1706'> +3.9243677E-01 </wgt>
<wgt id='1707'> +3.9262012E-01 </wgt>
<wgt id='1708'> +3.9252832E-01 </wgt>
<wgt id='1709'> +3.9289714E-01 </wgt>
<wgt id='1710'> +3.9270380E-01 </wgt>
<wgt id='1711'> +3.9270587E-01 </wgt>
<wgt id='1712'> +3.9258046E-01 </wgt>
<wgt id='1713'> +3.8630695E-01 </wgt>
<wgt id='1714'> +4.0148947E-01 </wgt>
<wgt id='1715'> +4.1415410E-01 </wgt>
<wgt id='1716'> +3.9935562E-01 </wgt>
<wgt id='1717'> +4.2855209E-01 </wgt>
<wgt id='1718'> +4.1148082E-01 </wgt>
<wgt id='1719'> +4.0868721E-01 </wgt>
<wgt id='1720'> +4.2135433E-01 </wgt>
<wgt id='1721'> +4.3615059E-01 </wgt>
<wgt id='1722'> +4.1168528E-01 </wgt>
<wgt id='1723'> +4.0357968E-01 </wgt>
<wgt id='1724'> +4.1753729E-01 </wgt>
<wgt id='1725'> +4.1156411E-01 </wgt>
<wgt id='1726'> +4.0488644E-01 </wgt>
<wgt id='1727'> +4.1231323E-01 </wgt>
<wgt id='1728'> +4.1134061E-01 </wgt>
<wgt id='1729'> +4.0525168E-01 </wgt>
<wgt id='1730'> +4.1013824E-01 </wgt>
<wgt id='1731'> +4.1812442E-01 </wgt>
<wgt id='1732'> +4.1819293E-01 </wgt>
<wgt id='1733'> +4.1031906E-01 </wgt>
<wgt id='1734'> +4.3081079E-01 </wgt>
<wgt id='1735'> +4.0512817E-01 </wgt>
<wgt id='1736'> +4.1591657E-01 </wgt>
<wgt id='1737'> +4.0483374E-01 </wgt>
<wgt id='1738'> +4.3267271E-01 </wgt>
<wgt id='1739'> +4.3071394E-01 </wgt>
<wgt id='1740'> +4.1289828E-01 </wgt>
<wgt id='1741'> +4.1301509E-01 </wgt>
<wgt id='1742'> +4.0716048E-01 </wgt>
<wgt id='1743'> +4.1693345E-01 </wgt>
<wgt id='1744'> +4.1100570E-01 </wgt>
<wgt id='1745'> +4.2336809E-01 </wgt>
<wgt id='1746'> +3.9745951E-01 </wgt>
<wgt id='1747'> +4.0842475E-01 </wgt>
<wgt id='1748'> +4.0839258E-01 </wgt>
<wgt id='1749'> +3.9065555E-01 </wgt>
<wgt id='1750'> +4.0062914E-01 </wgt>
<wgt id='1751'> +4.3293626E-01 </wgt>
<wgt id='1752'> +4.4377484E-01 </wgt>
<wgt id='1753'> +4.1093589E-01 </wgt>
<wgt id='1754'> +4.0670762E-01 </wgt>
<wgt id='1755'> +4.0175953E-01 </wgt>
<wgt id='1756'> +4.4241425E-01 </wgt>
<wgt id='1757'> +4.2150668E-01 </wgt>
<wgt id='1758'> +4.0011800E-01 </wgt>
<wgt id='1759'> +4.1037781E-01 </wgt>
<wgt id='1760'> +4.0628448E-01 </wgt>
<wgt id='1761'> +4.1245714E-01 </wgt>
<wgt id='1762'> +4.1231323E-01 </wgt>
<wgt id='1763'> +4.3390524E-01 </wgt>
<wgt id='1764'> +4.0719893E-01 </wgt>
<wgt id='1765'> +4.1477173E-01 </wgt>
<wgt id='1766'> +4.1043042E-01 </wgt>
<wgt id='1767'> +4.0653848E-01 </wgt>
<wgt id='1768'> +4.0711978E-01 </wgt>
<wgt id='1769'> +4.0856031E-01 </wgt>
<wgt id='1770'> +4.1357510E-01 </wgt>
<wgt id='1771'> +4.1794832E-01 </wgt>
<wgt id='1772'> +4.1318781E-01 </wgt>
<wgt id='1773'> +4.1774071E-01 </wgt>
<wgt id='1774'> +4.2739716E-01 </wgt>
<wgt id='1775'> +4.2627911E-01 </wgt>
<wgt id='1776'> +4.1440626E-01 </wgt>
<wgt id='1777'> +4.0997022E-01 </wgt>
<wgt id='1778'> +4.1546586E-01 </wgt>
<wgt id='1779'> +4.1960935E-01 </wgt>
<wgt id='1780'> +4.3032812E-01 </wgt>
<wgt id='1781'> +4.1339887E-01 </wgt>
<wgt id='1782'> +4.3131840E-01 </wgt>
<wgt id='1783'> +4.1874450E-01 </wgt>
<wgt id='1784'> +4.1174891E-01 </wgt>
<wgt id='1785'> +4.1669891E-01 </wgt>
<wgt id='1786'> +4.1476681E-01 </wgt>
<wgt id='1787'> +4.0671083E-01 </wgt>
<wgt id='1788'> +4.1043185E-01 </wgt>
<wgt id='1789'> +4.1572940E-01 </wgt>
<wgt id='1790'> +4.1595715E-01 </wgt>
<wgt id='1791'> +4.2026881E-01 </wgt>
<wgt id='1792'> +4.2327296E-01 </wgt>
<wgt id='1793'> +4.2134102E-01 </wgt>
<wgt id='1794'> +4.2015031E-01 </wgt>
<wgt id='1795'> +4.1743482E-01 </wgt>
<wgt id='1796'> +4.1071094E-01 </wgt>
<wgt id='1797'> +4.0963212E-01 </wgt>
<wgt id='1798'> +4.3688179E-01 </wgt>
<wgt id='1799'> +4.1247682E-01 </wgt>
<wgt id='1800'> +4.1671361E-01 </wgt>
<wgt id='1801'> +4.1066284E-01 </wgt>
<wgt id='1802'> +4.1087088E-01 </wgt>
<wgt id='1803'> +4.0746283E-01 </wgt>
<wgt id='1804'> +4.1113095E-01 </wgt>
<wgt id='1805'> +4.1251741E-01 </wgt>
<wgt id='1806'> +4.2450281E-01 </wgt>
<wgt id='1807'> +4.1664507E-01 </wgt>
<wgt id='1808'> +3.9543456E-01 </wgt>
<wgt id='1809'> +4.2390864E-01 </wgt>
<wgt id='1810'> +4.0823645E-01 </wgt>
<wgt id='1811'> +3.9937069E-01 </wgt>
<wgt id='1812'> +4.0136769E-01 </wgt>
<wgt id='1813'> +4.0467055E-01 </wgt>
<wgt id='1814'> +3.9869644E-01 </wgt>
<wgt id='1815'> +3.9875036E-01 </wgt>
<wgt id='1816'> +4.0053329E-01 </wgt>
<wgt id='1817'> +4.0458471E-01 </wgt>
<wgt id='1818'> +4.1165270E-01 </wgt>
<wgt id='1819'> +4.0258464E-01 </wgt>
<wgt id='1820'> +3.8456158E-01 </wgt>
<wgt id='1821'> +4.1078315E-01 </wgt>
<wgt id='1822'> +3.8901461E-01 </wgt>
<wgt id='1823'> +4.0324084E-01 </wgt>
<wgt id='1824'> +3.9901631E-01 </wgt>
<wgt id='1825'> +3.8499652E-01 </wgt>
<wgt id='1826'> +4.1124435E-01 </wgt>
<wgt id='1827'> +4.2138280E-01 </wgt>
<wgt id='1828'> +3.9166726E-01 </wgt>
<wgt id='1829'> +4.0246993E-01 </wgt>
<wgt id='1830'> +4.2242984E-01 </wgt>
<wgt id='1831'> +4.0337756E-01 </wgt>
<wgt id='1832'> +3.9794848E-01 </wgt>
<wgt id='1833'> +4.2225007E-01 </wgt>
<wgt id='1834'> +4.0203987E-01 </wgt>
<wgt id='1835'> +3.9713462E-01 </wgt>
<wgt id='1836'> +3.9155271E-01 </wgt>
<wgt id='1837'> +3.8992115E-01 </wgt>
<wgt id='1838'> +3.9847332E-01 </wgt>
<wgt id='1839'> +3.9562928E-01 </wgt>
<wgt id='1840'> +3.9318175E-01 </wgt>
<wgt id='1841'> +4.0254805E-01 </wgt>
<wgt id='1842'> +3.7935636E-01 </wgt>
<wgt id='1843'> +4.1528642E-01 </wgt>
<wgt id='1844'> +4.1866007E-01 </wgt>
<wgt id='1845'> +4.0496015E-01 </wgt>
<wgt id='1846'> +3.8564433E-01 </wgt>
<wgt id='1847'> +3.9372813E-01 </wgt>
<wgt id='1848'> +3.9513675E-01 </wgt>
<wgt id='1849'> +3.9826830E-01 </wgt>
<wgt id='1850'> +3.7666873E-01 </wgt>
<wgt id='1851'> +3.9748188E-01 </wgt>
<wgt id='1852'> +4.0021101E-01 </wgt>
<wgt id='1853'> +3.9873226E-01 </wgt>
<wgt id='1854'> +4.0302941E-01 </wgt>
<wgt id='1855'> +3.9877629E-01 </wgt>
<wgt id='1856'> +3.9569966E-01 </wgt>
<wgt id='1857'> +4.0540452E-01 </wgt>
<wgt id='1858'> +3.9404825E-01 </wgt>
<wgt id='1859'> +3.8805729E-01 </wgt>
<wgt id='1860'> +3.9042476E-01 </wgt>
<wgt id='1861'> +4.1055307E-01 </wgt>
<wgt id='1862'> +3.9318209E-01 </wgt>
<wgt id='1863'> +4.0324456E-01 </wgt>
<wgt id='1864'> +4.0380299E-01 </wgt>
<wgt id='1865'> +4.0714504E-01 </wgt>
<wgt id='1866'> +4.0673755E-01 </wgt>
<wgt id='1867'> +4.0187991E-01 </wgt>
<wgt id='1868'> +4.0089457E-01 </wgt>
<wgt id='1869'> +3.8681508E-01 </wgt>
<wgt id='1870'> +4.0079812E-01 </wgt>
<wgt id='1871'> +4.0222390E-01 </wgt>
<wgt id='1872'> +4.1268245E-01 </wgt>
<wgt id='1873'> +3.9616659E-01 </wgt>
<wgt id='1874'> +4.0892025E-01 </wgt>
<wgt id='1875'> +4.0087314E-01 </wgt>
<wgt id='1876'> +4.0081941E-01 </wgt>
<wgt id='1877'> +3.9923834E-01 </wgt>
<wgt id='1878'> +4.0536459E-01 </wgt>
<wgt id='1879'> +3.9753432E-01 </wgt>
<wgt id='1880'> +4.1049101E-01 </wgt>
<wgt id='1881'> +3.7653859E-01 </wgt>
<wgt id='1882'> +3.9914156E-01 </wgt>
<wgt id='1883'> +4.0515795E-01 </wgt>
<wgt id='1884'> +3.9594319E-01 </wgt>
<wgt id='1885'> +4.0600325E-01 </wgt>
<wgt id='1886'> +3.9701431E-01 </wgt>
<wgt id='1887'> +3.9932080E-01 </wgt>
<wgt id='1888'> +3.9472884E-01 </wgt>
<wgt id='1889'> +4.2071122E-01 </wgt>
<wgt id='1890'> +3.9036698E-01 </wgt>
<wgt id='1891'> +4.1945900E-01 </wgt>
<wgt id='1892'> +3.9319420E-01 </wgt>
<wgt id='1893'> +3.8996024E-01 </wgt>
<wgt id='1894'> +3.8777273E-01 </wgt>
<wgt id='1895'> +4.0485235E-01 </wgt>
<wgt id='1896'> +3.9734599E-01 </wgt>
<wgt id='1897'> +3.9638229E-01 </wgt>
<wgt id='1898'> +4.0725059E-01 </wgt>
<wgt id='1899'> +3.8599459E-01 </wgt>
<wgt id='1900'> +4.0941258E-01 </wgt>
<wgt id='1901'> +4.1775336E-01 </wgt>
<wgt id='1902'> +4.1197025E-01 </wgt>
<wgt id='1903'> +4.1366189E-01 </wgt>
<wgt id='1904'> +4.0736709E-01 </wgt>
<wgt id='1905'> +3.9081192E-01 </wgt>
<wgt id='1906'> +4.0575006E-01 </wgt>
<wgt id='1907'> +3.9790731E-01 </wgt>
<wgt id='1908'> +3.8693507E-01 </wgt>
<wgt id='1909'> +4.0490571E-01 </wgt>
<wgt id='1910'> +4.0463676E-01 </wgt>
<wgt id='1911'> +4.2190022E-01 </wgt>
<wgt id='1912'> +3.8842002E-01 </wgt>
<wgt id='1913'> +4.0161199E-01 </wgt>
<wgt id='1914'> +3.9181096E-01 </wgt>
<wgt id='1915'> +3.9718813E-01 </wgt>
<wgt id='1916'> +4.0906184E-01 </wgt>
<wgt id='1917'> +3.9904423E-01 </wgt>
<wgt id='1918'> +4.0246681E-01 </wgt>
<wgt id='1919'> +4.0053329E-01 </wgt>
<wgt id='1920'> +4.0458471E-01 </wgt>
<wgt id='1921'> +4.1165270E-01 </wgt>
<wgt id='1922'> +4.0258464E-01 </wgt>
<wgt id='1923'> +3.8456158E-01 </wgt>
<wgt id='1924'> +4.1078315E-01 </wgt>
<wgt id='1925'> +3.8901461E-01 </wgt>
<wgt id='1926'> +4.0324084E-01 </wgt>
<wgt id='1927'> +3.9901631E-01 </wgt>
<wgt id='1928'> +3.8499652E-01 </wgt>
<wgt id='1929'> +4.1124435E-01 </wgt>
<wgt id='1930'> +4.2138280E-01 </wgt>
<wgt id='1931'> +3.9166726E-01 </wgt>
<wgt id='1932'> +4.0246993E-01 </wgt>
<wgt id='1933'> +4.2242984E-01 </wgt>
<wgt id='1934'> +4.0337756E-01 </wgt>
<wgt id='1935'> +3.9794848E-01 </wgt>
<wgt id='1936'> +4.2225007E-01 </wgt>
<wgt id='1937'> +4.0203987E-01 </wgt>
<wgt id='1938'> +3.9713462E-01 </wgt>
<wgt id='1939'> +3.9155271E-01 </wgt>
<wgt id='1940'> +3.8992115E-01 </wgt>
<wgt id='1941'> +3.9847332E-01 </wgt>
<wgt id='1942'> +3.9562928E-01 </wgt>
<wgt id='1943'> +3.9318175E-01 </wgt>
<wgt id='1944'> +4.0254805E-01 </wgt>
<wgt id='1945'> +3.7935636E-01 </wgt>
<wgt id='1946'> +4.1528642E-01 </wgt>
<wgt id='1947'> +4.1866007E-01 </wgt>
<wgt id='1948'> +4.0496015E-01 </wgt>
<wgt id='1949'> +3.8564433E-01 </wgt>
<wgt id='1950'> +3.9372813E-01 </wgt>
<wgt id='1951'> +3.9513675E-01 </wgt>
<wgt id='1952'> +3.9826830E-01 </wgt>
<wgt id='1953'> +3.7666873E-01 </wgt>
<wgt id='1954'> +3.9748188E-01 </wgt>
<wgt id='1955'> +4.0021101E-01 </wgt>
<wgt id='1956'> +3.9873226E-01 </wgt>
<wgt id='1957'> +4.0302941E-01 </wgt>
<wgt id='1958'> +3.9877629E-01 </wgt>
<wgt id='1959'> +3.9569966E-01 </wgt>
<wgt id='1960'> +4.0540452E-01 </wgt>
<wgt id='1961'> +3.9404825E-01 </wgt>
<wgt id='1962'> +3.8805729E-01 </wgt>
<wgt id='1963'> +3.9042476E-01 </wgt>
<wgt id='1964'> +4.1055307E-01 </wgt>
<wgt id='1965'> +3.9318209E-01 </wgt>
<wgt id='1966'> +4.0324456E-01 </wgt>
<wgt id='1967'> +4.0380299E-01 </wgt>
<wgt id='1968'> +4.0714504E-01 </wgt>
<wgt id='1969'> +4.0673755E-01 </wgt>
<wgt id='1970'> +4.0187991E-01 </wgt>
<wgt id='1971'> +4.0089457E-01 </wgt>
<wgt id='1972'> +3.8681508E-01 </wgt>
<wgt id='1973'> +4.0079812E-01 </wgt>
<wgt id='1974'> +4.0222390E-01 </wgt>
<wgt id='1975'> +4.1268245E-01 </wgt>
<wgt id='1976'> +3.9616659E-01 </wgt>
<wgt id='1977'> +4.0892025E-01 </wgt>
<wgt id='1978'> +4.0087314E-01 </wgt>
<wgt id='1979'> +4.0081941E-01 </wgt>
<wgt id='1980'> +3.9923834E-01 </wgt>
<wgt id='1981'> +4.0536459E-01 </wgt>
<wgt id='1982'> +3.9753432E-01 </wgt>
<wgt id='1983'> +4.1049101E-01 </wgt>
<wgt id='1984'> +3.7653859E-01 </wgt>
<wgt id='1985'> +3.9914156E-01 </wgt>
<wgt id='1986'> +4.0515795E-01 </wgt>
<wgt id='1987'> +3.9594319E-01 </wgt>
<wgt id='1988'> +4.0600325E-01 </wgt>
<wgt id='1989'> +3.9701431E-01 </wgt>
<wgt id='1990'> +3.9932080E-01 </wgt>
<wgt id='1991'> +3.9472884E-01 </wgt>
<wgt id='1992'> +4.2071122E-01 </wgt>
<wgt id='1993'> +3.9036698E-01 </wgt>
<wgt id='1994'> +4.1945900E-01 </wgt>
<wgt id='1995'> +3.9319420E-01 </wgt>
<wgt id='1996'> +3.8996024E-01 </wgt>
<wgt id='1997'> +3.8777273E-01 </wgt>
<wgt id='1998'> +4.0485235E-01 </wgt>
<wgt id='1999'> +3.9734599E-01 </wgt>
<wgt id='2000'> +3.9638229E-01 </wgt>
<wgt id='2001'> +4.0725059E-01 </wgt>
<wgt id='2002'> +3.8599459E-01 </wgt>
<wgt id='2003'> +4.0941258E-01 </wgt>
<wgt id='2004'> +4.1775336E-01 </wgt>
<wgt id='2005'> +4.1197025E-01 </wgt>
<wgt id='2006'> +4.1366189E-01 </wgt>
<wgt id='2007'> +4.0736709E-01 </wgt>
<wgt id='2008'> +3.9081192E-01 </wgt>
<wgt id='2009'> +4.0575006E-01 </wgt>
<wgt id='2010'> +3.9790731E-01 </wgt>
<wgt id='2011'> +3.8693507E-01 </wgt>
<wgt id='2012'> +4.0490571E-01 </wgt>
<wgt id='2013'> +4.0463676E-01 </wgt>
<wgt id='2014'> +4.2190022E-01 </wgt>
<wgt id='2015'> +3.8842002E-01 </wgt>
<wgt id='2016'> +4.0161199E-01 </wgt>
<wgt id='2017'> +3.9181096E-01 </wgt>
<wgt id='2018'> +3.9718813E-01 </wgt>
<wgt id='2019'> +4.0906184E-01 </wgt>
<wgt id='2020'> +3.9693187E-01 </wgt>
<wgt id='2021'> +4.0331210E-01 </wgt>
<wgt id='2022'> +3.9784075E-01 </wgt>
</rwgt>
</event>
<event>
13      2 +3.9556008E-01 3.42089200e+02 7.81860800e-03 1.15543300e-01
       21 -1    0    0  502  503 +0.0000000000e+00 +0.0000000000e+00 +2.2133070468e+02 2.2133070468e+02 0.0000000000e+00 0.0000e+00 1.0000e+00
        1 -1    0    0  501    0 +0.0000000000e+00 +0.0000000000e+00 -9.3847095434e+02 9.3847095435e+02 5.0400000000e-03 0.0000e+00 -1.0000e+00
 -8000001  2    1    2    0  503 +1.5050408064e+02 -1.2135990696e+02 -4.4371074579e+02 7.7088127220e+02 5.9999917049e+02 0.0000e+00 0.0000e+00
        2  1    1    2  501    0 +2.1792036201e+00 +1.7605454988e+01 -1.8200664317e+02 1.8286913118e+02 2.5500000000e-03 0.0000e+00 -1.0000e+00
        5  1    1    2  502    0 -1.5268328426e+02 +1.0375445197e+02 -9.1422860695e+01 2.0605125565e+02 4.6700000000e+00 0.0000e+00 -1.0000e+00
       -6  2    3    3    0  503 +3.2861767964e+02 +2.1081366961e+01 -3.4057805249e+02 5.0406747578e+02 1.7221093722e+02 0.0000e+00 0.0000e+00
       -5  1    6    6    0  503 +1.4438860468e+02 +4.1733401020e+01 -2.2635098936e+02 2.7174680349e+02 4.6700000000e+00 0.0000e+00 1.0000e+00
      -24  2    6    6    0    0 +1.8422907496e+02 -2.0652034060e+01 -1.1422706313e+02 2.3232067229e+02 8.0982802195e+01 0.0000e+00 0.0000e+00
        3  1    8    8  504    0 +2.1723751775e+01 +8.6593449713e+00 +1.0243959978e+01 2.5531442645e+01 1.0100000000e-01 0.0000e+00 -1.0000e+00
       -4  1    8    8    0  504 +1.6250532319e+02 -2.9311379031e+01 -1.2447102311e+02 2.0678922965e+02 1.2700000000e+00 0.0000e+00 1.0000e+00
       23  2    3    3    0    0 -1.7811359899e+02 -1.4244127392e+02 -1.0313269330e+02 2.6681379642e+02 9.2408218622e+01 0.0000e+00 0.0000e+00
       16  1   11   11    0    0 -7.7015954452e+01 -1.4588814711e+01 -9.8168807481e+00 7.8997860113e+01 0.0000000000e+00 0.0000e+00 -1.0000e+00
      -16  1   11   11    0    0 -1.0109764454e+02 -1.2785245921e+02 -9.3315812556e+01 1.8781593631e+02 0.0000000000e+00 0.0000e+00 1.0000e+00
<mgrwt>
<rscale>  1 0.77901210e+02</rscale>
<asrwt>0</asrwt>
<pdfrwt beam="1">  1       21 0.34050877e-01 0.34208920e+03</pdfrwt>
<pdfrwt beam="2">  1        1 0.14438015e+00 0.17739813e+02</pdfrwt>
<totfact> 0.21806549e+03</totfact>
</mgrwt>
<rwgt>
<wgt id='1001'> +3.9556008E-01 </wgt>
<wgt id='1002'> +2.2432161E-01 </wgt>
<wgt id='1003'> +2.2431801E-01 </wgt>
<wgt id='1004'> +2.5835210E-01 </wgt>
<wgt id='1005'> +2.1769158E-01 </wgt>
<wgt id='1006'> +3.5560256E-01 </wgt>
<wgt id='1007'> +2.0757413E-01 </wgt>
<wgt id='1008'> +2.0757094E-01 </wgt>
<wgt id='1009'> +2.3743303E-01 </wgt>
<wgt id='1010'> +2.0171322E-01 </wgt>
<wgt id='1011'> +4.4603521E-01 </wgt>
<wgt id='1012'> +2.4408571E-01 </wgt>
<wgt id='1013'> +2.4408157E-01 </wgt>
<wgt id='1014'> +2.8343031E-01 </wgt>
<wgt id='1015'> +2.3648973E-01 </wgt>
<wgt id='1016'> +3.6836084E-01 </wgt>
<wgt id='1017'> +2.1225203E-01 </wgt>
<wgt id='1018'> +2.1224865E-01 </wgt>
<wgt id='1019'> +2.4408157E-01 </wgt>
<wgt id='1020'> +2.0607280E-01 </wgt>
<wgt id='1021'> +3.3115085E-01 </wgt>
<wgt id='1022'> +1.9640563E-01 </wgt>
<wgt id='1023'> +1.9640266E-01 </wgt>
<wgt id='1024'> +2.2431801E-01 </wgt>
<wgt id='1025'> +1.9094724E-01 </wgt>
<wgt id='1026'> +4.1536524E-01 </wgt>
<wgt id='1027'> +2.3095272E-01 </wgt>
<wgt id='1028'> +2.3094885E-01 </wgt>
<wgt id='1029'> +2.6777455E-01 </wgt>
<wgt id='1030'> +2.2386764E-01 </wgt>
<wgt id='1031'> +4.2659213E-01 </wgt>
<wgt id='1032'> +2.3743690E-01 </wgt>
<wgt id='1033'> +2.3743303E-01 </wgt>
<wgt id='1034'> +2.7381953E-01 </wgt>
<wgt id='1035'> +2.3034929E-01 </wgt>
<wgt id='1036'> +3.8349990E-01 </wgt>
<wgt id='1037'> +2.1971024E-01 </wgt>
<wgt id='1038'> +2.1970683E-01 </wgt>
<wgt id='1039'> +2.5164806E-01 </wgt>
<wgt id='1040'> +2.1344185E-01 </wgt>
<wgt id='1041'> +4.8102708E-01 </wgt>
<wgt id='1042'> +2.5835653E-01 </wgt>
<wgt id='1043'> +2.5835210E-01 </wgt>
<wgt id='1044'> +3.0039917E-01 </wgt>
<wgt id='1045'> +2.5024045E-01 </wgt>
<wgt id='1046'> +3.9556008E-01 </wgt>
<wgt id='1047'> +3.9556008E-01 </wgt>
<wgt id='1048'> +3.9556008E-01 </wgt>
<wgt id='1049'> +3.9685429E-01 </wgt>
<wgt id='1050'> +3.9571327E-01 </wgt>
<wgt id='1051'> +3.9587818E-01 </wgt>
<wgt id='1052'> +3.9529239E-01 </wgt>
<wgt id='1053'> +3.9656503E-01 </wgt>
<wgt id='1054'> +3.9535583E-01 </wgt>
<wgt id='1055'> +3.9370070E-01 </wgt>
<wgt id='1056'> +3.9510344E-01 </wgt>
<wgt id='1057'> +3.9441001E-01 </wgt>
<wgt id='1058'> +3.9551027E-01 </wgt>
<wgt id='1059'> +3.9467759E-01 </wgt>
<wgt id='1060'> +3.9596763E-01 </wgt>
<wgt id='1061'> +3.9595676E-01 </wgt>
<wgt id='1062'> +3.9655812E-01 </wgt>
<wgt id='1063'> +3.9573113E-01 </wgt>
<wgt id='1064'> +3.9516937E-01 </wgt>
<wgt id='1065'> +3.9659127E-01 </wgt>
<wgt id='1066'> +3.9367009E-01 </wgt>
<wgt id='1067'> +3.9835766E-01 </wgt>
<wgt id='1068'> +3.9538053E-01 </wgt>
<wgt id='1069'> +3.9534109E-01 </wgt>
<wgt id='1070'> +3.9458882E-01 </wgt>
<wgt id='1071'> +3.9448084E-01 </wgt>
<wgt id='1072'> +3.9682680E-01 </wgt>
<wgt id='1073'> +3.9512402E-01 </wgt>
<wgt id='1074'> +3.9624327E-01 </wgt>
<wgt id='1075'> +3.9483886E-01 </wgt>
<wgt id='1076'> +3.9614541E-01 </wgt>
<wgt id='1077'> +3.9804633E-01 </wgt>
<wgt id='1078'> +3.9448717E-01 </wgt>
<wgt id='1079'> +3.9893465E-01 </wgt>
<wgt id='1080'> +3.9639787E-01 </wgt>
<wgt id='1081'> +3.9731217E-01 </wgt>
<wgt id='1082'> +3.9676742E-01 </wgt>
<wgt id='1083'> +3.9450830E-01 </wgt>
<wgt id='1084'> +3.9324199E-01 </wgt>
<wgt id='1085'> +3.9762681E-01 </wgt>
<wgt id='1086'> +3.9443123E-01 </wgt>
<wgt id='1087'> +3.9468733E-01 </wgt>
<wgt id='1088'> +3.9551429E-01 </wgt>
<wgt id='1089'> +3.9586068E-01 </wgt>
<wgt id='1090'> +3.9648355E-01 </wgt>
<wgt id='1091'> +3.9496948E-01 </wgt>
<wgt id='1092'> +3.9482525E-01 </wgt>
<wgt id='1093'> +3.9665317E-01 </wgt>
<wgt id='1094'> +3.9534957E-01 </wgt>
<wgt id='1095'> +3.9521469E-01 </wgt>
<wgt id='1096'> +3.9468803E-01 </wgt>
<wgt id='1097'> +3.9443393E-01 </wgt>
<wgt id='1098'> +3.9444884E-01 </wgt>
<wgt id='1099'> +3.9508198E-01 </wgt>
<wgt id='1100'> +3.9512131E-01 </wgt>
<wgt id='1101'> +3.9603861E-01 </wgt>
<wgt id='1102'> +3.9621842E-01 </wgt>
<wgt id='1103'> +3.9737248E-01 </wgt>
<wgt id='1104'> +3.9467455E-01 </wgt>
<wgt id='1105'> +3.9554781E-01 </wgt>
<wgt id='1106'> +3.9688609E-01 </wgt>
<wgt id='1107'> +3.9527010E-01 </wgt>
<wgt id='1108'> +3.9546496E-01 </wgt>
<wgt id='1109'> +3.9702546E-01 </wgt>
<wgt id='1110'> +3.9651854E-01 </wgt>
<wgt id='1111'> +3.9536089E-01 </wgt>
<wgt id='1112'> +3.9542472E-01 </wgt>
<wgt id='1113'> +3.9594247E-01 </wgt>
<wgt id='1114'> +3.9543050E-01 </wgt>
<wgt id='1115'> +3.9554894E-01 </wgt>
<wgt id='1116'> +3.9625682E-01 </wgt>
<wgt id='1117'> +3.9551253E-01 </wgt>
<wgt id='1118'> +3.9571683E-01 </wgt>
<wgt id='1119'> +3.9574148E-01 </wgt>
<wgt id='1120'> +3.9529700E-01 </wgt>
<wgt id='1121'> +3.9582797E-01 </wgt>
<wgt id='1122'> +3.9532802E-01 </wgt>
<wgt id='1123'> +3.9510235E-01 </wgt>
<wgt id='1124'> +3.9510091E-01 </wgt>
<wgt id='1125'> +3.9616512E-01 </wgt>
<wgt id='1126'> +3.9519418E-01 </wgt>
<wgt id='1127'> +3.9507420E-01 </wgt>
<wgt id='1128'> +3.9595270E-01 </wgt>
<wgt id='1129'> +3.9556714E-01 </wgt>
<wgt id='1130'> +3.9575902E-01 </wgt>
<wgt id='1131'> +3.9633619E-01 </wgt>
<wgt id='1132'> +3.9552304E-01 </wgt>
<wgt id='1133'> +3.9560867E-01 </wgt>
<wgt id='1134'> +3.9534962E-01 </wgt>
<wgt id='1135'> +3.9604652E-01 </wgt>
<wgt id='1136'> +3.9573914E-01 </wgt>
<wgt id='1137'> +3.9573254E-01 </wgt>
<wgt id='1138'> +3.9579744E-01 </wgt>
<wgt id='1139'> +3.9572046E-01 </wgt>
<wgt id='1140'> +3.9589861E-01 </wgt>
<wgt id='1141'> +3.9553161E-01 </wgt>
<wgt id='1142'> +3.9600706E-01 </wgt>
<wgt id='1143'> +3.9554757E-01 </wgt>
<wgt id='1144'> +3.9547802E-01 </wgt>
<wgt id='1145'> +3.9551147E-01 </wgt>
<wgt id='1146'> +3.9545137E-01 </wgt>
<wgt id='1147'> +3.9579187E-01 </wgt>
<wgt id='1148'> +3.9556008E-01 </wgt>
<wgt id='1149'> +3.9213318E-01 </wgt>
<wgt id='1150'> +3.9273865E-01 </wgt>
<wgt id='1151'> +3.9597107E-01 </wgt>
<wgt id='1152'> +3.9708014E-01 </wgt>
<wgt id='1153'> +3.8472871E-01 </wgt>
<wgt id='1154'> +3.9454547E-01 </wgt>
<wgt id='1155'> +4.0170988E-01 </wgt>
<wgt id='1156'> +3.9384695E-01 </wgt>
<wgt id='1157'> +3.9188941E-01 </wgt>
<wgt id='1158'> +4.0719286E-01 </wgt>
<wgt id='1159'> +3.6835735E-01 </wgt>
<wgt id='1160'> +3.8511530E-01 </wgt>
<wgt id='1161'> +3.9274071E-01 </wgt>
<wgt id='1162'> +3.8034061E-01 </wgt>
<wgt id='1163'> +3.9034724E-01 </wgt>
<wgt id='1164'> +4.0265387E-01 </wgt>
<wgt id='1165'> +3.9062236E-01 </wgt>
<wgt id='1166'> +3.9094872E-01 </wgt>
<wgt id='1167'> +3.9900041E-01 </wgt>
<wgt id='1168'> +3.8986582E-01 </wgt>
<wgt id='1169'> +3.8869576E-01 </wgt>
<wgt id='1170'> +4.0067736E-01 </wgt>
<wgt id='1171'> +4.0126895E-01 </wgt>
<wgt id='1172'> +3.9439037E-01 </wgt>
<wgt id='1173'> +3.8343276E-01 </wgt>
<wgt id='1174'> +3.9744370E-01 </wgt>
<wgt id='1175'> +3.9391540E-01 </wgt>
<wgt id='1176'> +3.6881439E-01 </wgt>
<wgt id='1177'> +4.0200100E-01 </wgt>
<wgt id='1178'> +3.8347490E-01 </wgt>
<wgt id='1179'> +3.9434835E-01 </wgt>
<wgt id='1180'> +4.0077184E-01 </wgt>
<wgt id='1181'> +3.9926338E-01 </wgt>
<wgt id='1182'> +4.0729092E-01 </wgt>
<wgt id='1183'> +3.9092061E-01 </wgt>
<wgt id='1184'> +3.9278237E-01 </wgt>
<wgt id='1185'> +4.0217796E-01 </wgt>
<wgt id='1186'> +3.9237069E-01 </wgt>
<wgt id='1187'> +3.8722921E-01 </wgt>
<wgt id='1188'> +3.9019766E-01 </wgt>
<wgt id='1189'> +3.9198276E-01 </wgt>
<wgt id='1190'> +3.9157298E-01 </wgt>
<wgt id='1191'> +3.9651309E-01 </wgt>
<wgt id='1192'> +3.9088262E-01 </wgt>
<wgt id='1193'> +3.8642576E-01 </wgt>
<wgt id='1194'> +3.7621066E-01 </wgt>
<wgt id='1195'> +3.9493635E-01 </wgt>
<wgt id='1196'> +3.9952976E-01 </wgt>
<wgt id='1197'> +3.8337176E-01 </wgt>
<wgt id='1198'> +4.0371583E-01 </wgt>
<wgt id='1199'> +3.9353859E-01 </wgt>
<wgt id='1200'> +3.9284241E-01 </wgt>
<wgt id='1201'> +3.9874122E-01 </wgt>
<wgt id='1202'> +3.9310318E-01 </wgt>
<wgt id='1203'> +3.9869361E-01 </wgt>
<wgt id='1204'> +3.8879149E-01 </wgt>
<wgt id='1205'> +3.9007115E-01 </wgt>
<wgt id='1206'> +3.9785739E-01 </wgt>
<wgt id='1207'> +4.0638638E-01 </wgt>
<wgt id='1208'> +3.8932222E-01 </wgt>
<wgt id='1209'> +4.0239937E-01 </wgt>
<wgt id='1210'> +3.9577037E-01 </wgt>
<wgt id='1211'> +3.9842718E-01 </wgt>
<wgt id='1212'> +3.8297639E-01 </wgt>
<wgt id='1213'> +3.9307273E-01 </wgt>
<wgt id='1214'> +3.9266112E-01 </wgt>
<wgt id='1215'> +3.8053592E-01 </wgt>
<wgt id='1216'> +3.8573657E-01 </wgt>
<wgt id='1217'> +3.9687927E-01 </wgt>
<wgt id='1218'> +3.9029451E-01 </wgt>
<wgt id='1219'> +3.9007159E-01 </wgt>
<wgt id='1220'> +4.0458784E-01 </wgt>
<wgt id='1221'> +3.7553273E-01 </wgt>
<wgt id='1222'> +3.9214252E-01 </wgt>
<wgt id='1223'> +3.8523941E-01 </wgt>
<wgt id='1224'> +3.8883116E-01 </wgt>
<wgt id='1225'> +3.9251161E-01 </wgt>
<wgt id='1226'> +3.9116247E-01 </wgt>
<wgt id='1227'> +4.0757065E-01 </wgt>
<wgt id='1228'> +4.0210796E-01 </wgt>
<wgt id='1229'> +3.8241258E-01 </wgt>
<wgt id='1230'> +3.9285480E-01 </wgt>
<wgt id='1231'> +3.9062236E-01 </wgt>
<wgt id='1232'> +3.6135851E-01 </wgt>
<wgt id='1233'> +3.8979880E-01 </wgt>
<wgt id='1234'> +4.0609351E-01 </wgt>
<wgt id='1235'> +3.9454969E-01 </wgt>
<wgt id='1236'> +4.0126591E-01 </wgt>
<wgt id='1237'> +3.9189904E-01 </wgt>
<wgt id='1238'> +3.5693880E-01 </wgt>
<wgt id='1239'> +4.0127166E-01 </wgt>
<wgt id='1240'> +4.0012040E-01 </wgt>
<wgt id='1241'> +3.8961508E-01 </wgt>
<wgt id='1242'> +3.8412809E-01 </wgt>
<wgt id='1243'> +3.8934925E-01 </wgt>
<wgt id='1244'> +3.9165470E-01 </wgt>
<wgt id='1245'> +4.0007560E-01 </wgt>
<wgt id='1246'> +3.7941886E-01 </wgt>
<wgt id='1247'> +3.8726950E-01 </wgt>
<wgt id='1248'> +3.9301130E-01 </wgt>
<wgt id='1249'> +3.9402703E-01 </wgt>
<wgt id='1250'> +3.8208408E-01 </wgt>
<wgt id='1251'> +3.7873651E-01 </wgt>
<wgt id='1252'> +3.8339324E-01 </wgt>
<wgt id='1253'> +3.8426235E-01 </wgt>
<wgt id='1254'> +3.3922422E-01 </wgt>
<wgt id='1255'> +3.8220952E-01 </wgt>
<wgt id='1256'> +3.8181124E-01 </wgt>
<wgt id='1257'> +3.8243774E-01 </wgt>
<wgt id='1258'> +3.8376347E-01 </wgt>
<wgt id='1259'> +3.8142032E-01 </wgt>
<wgt id='1260'> +3.8209619E-01 </wgt>
<wgt id='1261'> +3.8237487E-01 </wgt>
<wgt id='1262'> +3.8227904E-01 </wgt>
<wgt id='1263'> +3.8217354E-01 </wgt>
<wgt id='1264'> +3.8633171E-01 </wgt>
<wgt id='1265'> +3.7935290E-01 </wgt>
<wgt id='1266'> +3.8206006E-01 </wgt>
<wgt id='1267'> +3.8235582E-01 </wgt>
<wgt id='1268'> +3.8393902E-01 </wgt>
<wgt id='1269'> +3.8046484E-01 </wgt>
<wgt id='1270'> +3.8111675E-01 </wgt>
<wgt id='1271'> +3.8301397E-01 </wgt>
<wgt id='1272'> +3.8529853E-01 </wgt>
<wgt id='1273'> +3.7945495E-01 </wgt>
<wgt id='1274'> +3.8085901E-01 </wgt>
<wgt id='1275'> +3.8374578E-01 </wgt>
<wgt id='1276'> +3.8208838E-01 </wgt>
<wgt id='1277'> +3.8206480E-01 </wgt>
<wgt id='1278'> +3.7856571E-01 </wgt>
<wgt id='1279'> +3.8504412E-01 </wgt>
<wgt id='1280'> +3.8242646E-01 </wgt>
<wgt id='1281'> +3.8039967E-01 </wgt>
<wgt id='1282'> +3.8383496E-01 </wgt>
<wgt id='1283'> +3.7937985E-01 </wgt>
<wgt id='1284'> +3.8022188E-01 </wgt>
<wgt id='1285'> +3.8202906E-01 </wgt>
<wgt id='1286'> +3.8092762E-01 </wgt>
<wgt id='1287'> +3.8223222E-01 </wgt>
<wgt id='1288'> +3.8185805E-01 </wgt>
<wgt id='1289'> +3.8215908E-01 </wgt>
<wgt id='1290'> +3.8320646E-01 </wgt>
<wgt id='1291'> +3.8185209E-01 </wgt>
<wgt id='1292'> +3.8350786E-01 </wgt>
<wgt id='1293'> +3.8007162E-01 </wgt>
<wgt id='1294'> +3.8046808E-01 </wgt>
<wgt id='1295'> +3.8215132E-01 </wgt>
<wgt id='1296'> +3.8772783E-01 </wgt>
<wgt id='1297'> +3.8859055E-01 </wgt>
<wgt id='1298'> +3.8702379E-01 </wgt>
<wgt id='1299'> +3.8855244E-01 </wgt>
<wgt id='1300'> +3.8680713E-01 </wgt>
<wgt id='1301'> +3.8745031E-01 </wgt>
<wgt id='1302'> +3.8812782E-01 </wgt>
<wgt id='1303'> +3.8965628E-01 </wgt>
<wgt id='1304'> +3.8643321E-01 </wgt>
<wgt id='1305'> +3.8783243E-01 </wgt>
<wgt id='1306'> +3.8759545E-01 </wgt>
<wgt id='1307'> +3.8833475E-01 </wgt>
<wgt id='1308'> +3.8734836E-01 </wgt>
<wgt id='1309'> +3.8510255E-01 </wgt>
<wgt id='1310'> +3.9127196E-01 </wgt>
<wgt id='1311'> +3.8864445E-01 </wgt>
<wgt id='1312'> +3.8740376E-01 </wgt>
<wgt id='1313'> +3.8773645E-01 </wgt>
<wgt id='1314'> +3.8756168E-01 </wgt>
<wgt id='1315'> +3.8426024E-01 </wgt>
<wgt id='1316'> +3.9049250E-01 </wgt>
<wgt id='1317'> +3.8432622E-01 </wgt>
<wgt id='1318'> +3.9379432E-01 </wgt>
<wgt id='1319'> +3.8761065E-01 </wgt>
<wgt id='1320'> +3.8763835E-01 </wgt>
<wgt id='1321'> +3.8482411E-01 </wgt>
<wgt id='1322'> +3.8903807E-01 </wgt>
<wgt id='1323'> +3.8340100E-01 </wgt>
<wgt id='1324'> +3.8506312E-01 </wgt>
<wgt id='1325'> +3.8803497E-01 </wgt>
<wgt id='1326'> +3.8605269E-01 </wgt>
<wgt id='1327'> +3.8663563E-01 </wgt>
<wgt id='1328'> +3.8811995E-01 </wgt>
<wgt id='1329'> +3.8710398E-01 </wgt>
<wgt id='1330'> +3.8805831E-01 </wgt>
<wgt id='1331'> +3.8775270E-01 </wgt>
<wgt id='1332'> +3.8707340E-01 </wgt>
<wgt id='1333'> +3.9011726E-01 </wgt>
<wgt id='1334'> +3.8472089E-01 </wgt>
<wgt id='1335'> +3.8982455E-01 </wgt>
<wgt id='1336'> +3.8691103E-01 </wgt>
<wgt id='1337'> +3.8772783E-01 </wgt>
<wgt id='1338'> +3.8763716E-01 </wgt>
<wgt id='1339'> +3.8768835E-01 </wgt>
<wgt id='1340'> +3.8772635E-01 </wgt>
<wgt id='1341'> +3.8778489E-01 </wgt>
<wgt id='1342'> +3.8780067E-01 </wgt>
<wgt id='1343'> +3.8778901E-01 </wgt>
<wgt id='1344'> +3.8852783E-01 </wgt>
<wgt id='1345'> +3.8943516E-01 </wgt>
<wgt id='1346'> +3.8761976E-01 </wgt>
<wgt id='1347'> +3.8776837E-01 </wgt>
<wgt id='1348'> +3.8906177E-01 </wgt>
<wgt id='1349'> +3.8995648E-01 </wgt>
<wgt id='1350'> +3.8730014E-01 </wgt>
<wgt id='1351'> +3.8846947E-01 </wgt>
<wgt id='1352'> +3.8860413E-01 </wgt>
<wgt id='1353'> +3.8934019E-01 </wgt>
<wgt id='1354'> +3.8792931E-01 </wgt>
<wgt id='1355'> +3.9181562E-01 </wgt>
<wgt id='1356'> +3.8594075E-01 </wgt>
<wgt id='1357'> +3.9020235E-01 </wgt>
<wgt id='1358'> +3.8749825E-01 </wgt>
<wgt id='1359'> +3.8797813E-01 </wgt>
<wgt id='1360'> +3.8997768E-01 </wgt>
<wgt id='1361'> +3.8979978E-01 </wgt>
<wgt id='1362'> +3.8778051E-01 </wgt>
<wgt id='1363'> +3.9171809E-01 </wgt>
<wgt id='1364'> +3.8375833E-01 </wgt>
<wgt id='1365'> +3.8680815E-01 </wgt>
<wgt id='1366'> +3.8912796E-01 </wgt>
<wgt id='1367'> +3.8499584E-01 </wgt>
<wgt id='1368'> +3.9002100E-01 </wgt>
<wgt id='1369'> +3.8709935E-01 </wgt>
<wgt id='1370'> +3.8919948E-01 </wgt>
<wgt id='1371'> +3.8752492E-01 </wgt>
<wgt id='1372'> +3.8399797E-01 </wgt>
<wgt id='1373'> +3.9019418E-01 </wgt>
<wgt id='1374'> +3.8790751E-01 </wgt>
<wgt id='1375'> +3.8660391E-01 </wgt>
<wgt id='1376'> +3.8885276E-01 </wgt>
<wgt id='1377'> +3.8857690E-01 </wgt>
<wgt id='1378'> +3.8852850E-01 </wgt>
<wgt id='1379'> +3.8710823E-01 </wgt>
<wgt id='1380'> +3.8873119E-01 </wgt>
<wgt id='1381'> +3.8624986E-01 </wgt>
<wgt id='1382'> +3.8890751E-01 </wgt>
<wgt id='1383'> +3.8766768E-01 </wgt>
<wgt id='1384'> +3.9021004E-01 </wgt>
<wgt id='1385'> +3.8852783E-01 </wgt>
<wgt id='1386'> +3.8825378E-01 </wgt>
<wgt id='1387'> +3.8836404E-01 </wgt>
<wgt id='1388'> +3.8845270E-01 </wgt>
<wgt id='1389'> +3.8853207E-01 </wgt>
<wgt id='1390'> +3.8856488E-01 </wgt>
<wgt id='1391'> +3.8855756E-01 </wgt>
<wgt id='1392'> +4.0464285E-01 </wgt>
<wgt id='1393'> +4.0446436E-01 </wgt>
<wgt id='1394'> +4.0484943E-01 </wgt>
<wgt id='1395'> +4.0514896E-01 </wgt>
<wgt id='1396'> +4.0428046E-01 </wgt>
<wgt id='1397'> +4.0562022E-01 </wgt>
<wgt id='1398'> +4.0369818E-01 </wgt>
<wgt id='1399'> +4.0358920E-01 </wgt>
<wgt id='1400'> +4.0596845E-01 </wgt>
<wgt id='1401'> +4.0465899E-01 </wgt>
<wgt id='1402'> +4.0463375E-01 </wgt>
<wgt id='1403'> +4.0387948E-01 </wgt>
<wgt id='1404'> +4.0617247E-01 </wgt>
<wgt id='1405'> +4.0613720E-01 </wgt>
<wgt id='1406'> +4.0257515E-01 </wgt>
<wgt id='1407'> +4.0534439E-01 </wgt>
<wgt id='1408'> +4.0415306E-01 </wgt>
<wgt id='1409'> +4.0514015E-01 </wgt>
<wgt id='1410'> +4.0409584E-01 </wgt>
<wgt id='1411'> +4.0299871E-01 </wgt>
<wgt id='1412'> +4.0589376E-01 </wgt>
<wgt id='1413'> +4.0800426E-01 </wgt>
<wgt id='1414'> +4.0104453E-01 </wgt>
<wgt id='1415'> +4.0750111E-01 </wgt>
<wgt id='1416'> +4.0184592E-01 </wgt>
<wgt id='1417'> +4.0365827E-01 </wgt>
<wgt id='1418'> +4.0586514E-01 </wgt>
<wgt id='1419'> +4.0281841E-01 </wgt>
<wgt id='1420'> +4.0348771E-01 </wgt>
<wgt id='1421'> +4.0623959E-01 </wgt>
<wgt id='1422'> +4.0272951E-01 </wgt>
<wgt id='1423'> +4.0821387E-01 </wgt>
<wgt id='1424'> +4.0184764E-01 </wgt>
<wgt id='1425'> +4.0439935E-01 </wgt>
<wgt id='1426'> +4.0474540E-01 </wgt>
<wgt id='1427'> +4.0508022E-01 </wgt>
<wgt id='1428'> +4.0320389E-01 </wgt>
<wgt id='1429'> +4.0449597E-01 </wgt>
<wgt id='1430'> +4.0404105E-01 </wgt>
<wgt id='1431'> +4.0311758E-01 </wgt>
<wgt id='1432'> +4.0594660E-01 </wgt>
<wgt id='1433'> +3.9872758E-01 </wgt>
<wgt id='1434'> +4.1153570E-01 </wgt>
<wgt id='1435'> +4.0366472E-01 </wgt>
<wgt id='1436'> +4.0379607E-01 </wgt>
<wgt id='1437'> +4.0315915E-01 </wgt>
<wgt id='1438'> +4.0857685E-01 </wgt>
<wgt id='1439'> +4.0632206E-01 </wgt>
<wgt id='1440'> +4.0075186E-01 </wgt>
<wgt id='1441'> +4.0511774E-01 </wgt>
<wgt id='1442'> +4.0313748E-01 </wgt>
<wgt id='1443'> +4.0178395E-01 </wgt>
<wgt id='1444'> +4.0158763E-01 </wgt>
<wgt id='1445'> +4.0198094E-01 </wgt>
<wgt id='1446'> +4.0230266E-01 </wgt>
<wgt id='1447'> +4.0143255E-01 </wgt>
<wgt id='1448'> +4.0278065E-01 </wgt>
<wgt id='1449'> +4.0085739E-01 </wgt>
<wgt id='1450'> +4.0065803E-01 </wgt>
<wgt id='1451'> +4.0304651E-01 </wgt>
<wgt id='1452'> +4.0189243E-01 </wgt>
<wgt id='1453'> +4.0167415E-01 </wgt>
<wgt id='1454'> +4.0115676E-01 </wgt>
<wgt id='1455'> +4.0314003E-01 </wgt>
<wgt id='1456'> +4.0361991E-01 </wgt>
<wgt id='1457'> +3.9848996E-01 </wgt>
<wgt id='1458'> +4.0219419E-01 </wgt>
<wgt id='1459'> +4.0154677E-01 </wgt>
<wgt id='1460'> +4.0188796E-01 </wgt>
<wgt id='1461'> +4.0165203E-01 </wgt>
<wgt id='1462'> +4.0019727E-01 </wgt>
<wgt id='1463'> +4.0314207E-01 </wgt>
<wgt id='1464'> +4.0465477E-01 </wgt>
<wgt id='1465'> +3.9797162E-01 </wgt>
<wgt id='1466'> +4.0549413E-01 </wgt>
<wgt id='1467'> +3.9936542E-01 </wgt>
<wgt id='1468'> +4.0176539E-01 </wgt>
<wgt id='1469'> +4.0184797E-01 </wgt>
<wgt id='1470'> +4.0006357E-01 </wgt>
<wgt id='1471'> +4.0092700E-01 </wgt>
<wgt id='1472'> +4.0287939E-01 </wgt>
<wgt id='1473'> +4.0037667E-01 </wgt>
<wgt id='1474'> +4.0439411E-01 </wgt>
<wgt id='1475'> +3.9862444E-01 </wgt>
<wgt id='1476'> +4.0093495E-01 </wgt>
<wgt id='1477'> +4.0239386E-01 </wgt>
<wgt id='1478'> +4.0227643E-01 </wgt>
<wgt id='1479'> +4.0023616E-01 </wgt>
<wgt id='1480'> +4.0218784E-01 </wgt>
<wgt id='1481'> +4.0132392E-01 </wgt>
<wgt id='1482'> +4.0023624E-01 </wgt>
<wgt id='1483'> +4.0330343E-01 </wgt>
<wgt id='1484'> +3.9582677E-01 </wgt>
<wgt id='1485'> +4.0838486E-01 </wgt>
<wgt id='1486'> +4.0226970E-01 </wgt>
<wgt id='1487'> +4.0045803E-01 </wgt>
<wgt id='1488'> +4.0006771E-01 </wgt>
<wgt id='1489'> +4.0608648E-01 </wgt>
<wgt id='1490'> +4.0329591E-01 </wgt>
<wgt id='1491'> +3.9765230E-01 </wgt>
<wgt id='1492'> +4.0239862E-01 </wgt>
<wgt id='1493'> +3.9979390E-01 </wgt>
<wgt id='1494'> +3.8736908E-01 </wgt>
<wgt id='1495'> +3.8326568E-01 </wgt>
<wgt id='1496'> +3.8497446E-01 </wgt>
<wgt id='1497'> +3.8619743E-01 </wgt>
<wgt id='1498'> +3.8870695E-01 </wgt>
<wgt id='1499'> +3.8743289E-01 </wgt>
<wgt id='1500'> +3.8659821E-01 </wgt>
<wgt id='1501'> +3.8690589E-01 </wgt>
<wgt id='1502'> +3.8717055E-01 </wgt>
<wgt id='1503'> +3.8729631E-01 </wgt>
<wgt id='1504'> +3.8742362E-01 </wgt>
<wgt id='1505'> +3.8758339E-01 </wgt>
<wgt id='1506'> +3.8761039E-01 </wgt>
<wgt id='1507'> +3.8764746E-01 </wgt>
<wgt id='1508'> +3.8743289E-01 </wgt>
<wgt id='1509'> +3.8762701E-01 </wgt>
<wgt id='1510'> +3.8753075E-01 </wgt>
<wgt id='1511'> +3.8736713E-01 </wgt>
<wgt id='1512'> +3.8735576E-01 </wgt>
<wgt id='1513'> +3.9250385E-01 </wgt>
<wgt id='1514'> +3.9217475E-01 </wgt>
<wgt id='1515'> +3.9293087E-01 </wgt>
<wgt id='1516'> +3.9285138E-01 </wgt>
<wgt id='1517'> +3.9216322E-01 </wgt>
<wgt id='1518'> +3.9356908E-01 </wgt>
<wgt id='1519'> +3.9207689E-01 </wgt>
<wgt id='1520'> +3.9194273E-01 </wgt>
<wgt id='1521'> +3.9306358E-01 </wgt>
<wgt id='1522'> +3.9300806E-01 </wgt>
<wgt id='1523'> +3.9202155E-01 </wgt>
<wgt id='1524'> +3.9368871E-01 </wgt>
<wgt id='1525'> +3.9199789E-01 </wgt>
<wgt id='1526'> +3.9319478E-01 </wgt>
<wgt id='1527'> +3.9166840E-01 </wgt>
<wgt id='1528'> +3.9453835E-01 </wgt>
<wgt id='1529'> +3.9029540E-01 </wgt>
<wgt id='1530'> +3.9387147E-01 </wgt>
<wgt id='1531'> +3.9173394E-01 </wgt>
<wgt id='1532'> +3.9255778E-01 </wgt>
<wgt id='1533'> +3.9242191E-01 </wgt>
<wgt id='1534'> +3.8811153E-01 </wgt>
<wgt id='1535'> +3.9554588E-01 </wgt>
<wgt id='1536'> +3.9046076E-01 </wgt>
<wgt id='1537'> +3.9442354E-01 </wgt>
<wgt id='1538'> +3.9163304E-01 </wgt>
<wgt id='1539'> +3.9471562E-01 </wgt>
<wgt id='1540'> +3.9169822E-01 </wgt>
<wgt id='1541'> +3.9071314E-01 </wgt>
<wgt id='1542'> +3.9133832E-01 </wgt>
<wgt id='1543'> +3.9585679E-01 </wgt>
<wgt id='1544'> +3.9372905E-01 </wgt>
<wgt id='1545'> +3.8949487E-01 </wgt>
<wgt id='1546'> +3.9259311E-01 </wgt>
<wgt id='1547'> +3.9173314E-01 </wgt>
<wgt id='1548'> +3.9145177E-01 </wgt>
<wgt id='1549'> +3.9247370E-01 </wgt>
<wgt id='1550'> +3.9195607E-01 </wgt>
<wgt id='1551'> +3.8977722E-01 </wgt>
<wgt id='1552'> +3.9070580E-01 </wgt>
<wgt id='1553'> +3.9361575E-01 </wgt>
<wgt id='1554'> +3.9598367E-01 </wgt>
<wgt id='1555'> +3.8600993E-01 </wgt>
<wgt id='1556'> +3.9229070E-01 </wgt>
<wgt id='1557'> +3.9061563E-01 </wgt>
<wgt id='1558'> +3.8890066E-01 </wgt>
<wgt id='1559'> +3.9506841E-01 </wgt>
<wgt id='1560'> +3.9594405E-01 </wgt>
<wgt id='1561'> +3.9094110E-01 </wgt>
<wgt id='1562'> +3.9084994E-01 </wgt>
<wgt id='1563'> +3.9318376E-01 </wgt>
<wgt id='1564'> +3.9250385E-01 </wgt>
<wgt id='1565'> +3.9137307E-01 </wgt>
<wgt id='1566'> +3.9326960E-01 </wgt>
<wgt id='1567'> +3.9212808E-01 </wgt>
<wgt id='1568'> +3.9147886E-01 </wgt>
<wgt id='1569'> +3.9185732E-01 </wgt>
<wgt id='1570'> +3.9193657E-01 </wgt>
<wgt id='1571'> +3.9187717E-01 </wgt>
<wgt id='1572'> +3.9214262E-01 </wgt>
<wgt id='1573'> +3.9205795E-01 </wgt>
<wgt id='1574'> +3.9165331E-01 </wgt>
<wgt id='1575'> +3.9158222E-01 </wgt>
<wgt id='1576'> +3.9212808E-01 </wgt>
<wgt id='1577'> +3.9223832E-01 </wgt>
<wgt id='1578'> +3.9217297E-01 </wgt>
<wgt id='1579'> +3.9210570E-01 </wgt>
<wgt id='1580'> +3.9209376E-01 </wgt>
<wgt id='1581'> +3.8693600E-01 </wgt>
<wgt id='1582'> +3.8702490E-01 </wgt>
<wgt id='1583'> +3.9211979E-01 </wgt>
<wgt id='1584'> +3.8465892E-01 </wgt>
<wgt id='1585'> +3.8807514E-01 </wgt>
<wgt id='1586'> +3.8339872E-01 </wgt>
<wgt id='1587'> +3.8421119E-01 </wgt>
<wgt id='1588'> +3.8834192E-01 </wgt>
<wgt id='1589'> +3.8658776E-01 </wgt>
<wgt id='1590'> +3.8548575E-01 </wgt>
<wgt id='1591'> +3.8601925E-01 </wgt>
<wgt id='1592'> +3.8762865E-01 </wgt>
<wgt id='1593'> +3.8697071E-01 </wgt>
<wgt id='1594'> +3.8768499E-01 </wgt>
<wgt id='1595'> +3.8667256E-01 </wgt>
<wgt id='1596'> +3.8811630E-01 </wgt>
<wgt id='1597'> +3.8595860E-01 </wgt>
<wgt id='1598'> +3.8851857E-01 </wgt>
<wgt id='1599'> +3.9190128E-01 </wgt>
<wgt id='1600'> +3.8777017E-01 </wgt>
<wgt id='1601'> +3.8668932E-01 </wgt>
<wgt id='1602'> +3.8768568E-01 </wgt>
<wgt id='1603'> +3.8693312E-01 </wgt>
<wgt id='1604'> +3.8764016E-01 </wgt>
<wgt id='1605'> +3.8635972E-01 </wgt>
<wgt id='1606'> +3.8688552E-01 </wgt>
<wgt id='1607'> +3.8765580E-01 </wgt>
<wgt id='1608'> +3.9034764E-01 </wgt>
<wgt id='1609'> +3.8721796E-01 </wgt>
<wgt id='1610'> +3.8618962E-01 </wgt>
<wgt id='1611'> +3.8890450E-01 </wgt>
<wgt id='1612'> +3.8927574E-01 </wgt>
<wgt id='1613'> +3.8876224E-01 </wgt>
<wgt id='1614'> +3.8940598E-01 </wgt>
<wgt id='1615'> +3.8987772E-01 </wgt>
<wgt id='1616'> +3.8927605E-01 </wgt>
<wgt id='1617'> +3.8875036E-01 </wgt>
<wgt id='1618'> +3.8940767E-01 </wgt>
<wgt id='1619'> +3.8793052E-01 </wgt>
<wgt id='1620'> +3.8819567E-01 </wgt>
<wgt id='1621'> +3.8916948E-01 </wgt>
<wgt id='1622'> +3.8972422E-01 </wgt>
<wgt id='1623'> +3.8785092E-01 </wgt>
<wgt id='1624'> +3.8853508E-01 </wgt>
<wgt id='1625'> +3.8895746E-01 </wgt>
<wgt id='1626'> +3.8966073E-01 </wgt>
<wgt id='1627'> +3.9020342E-01 </wgt>
<wgt id='1628'> +3.8963879E-01 </wgt>
<wgt id='1629'> +3.8912901E-01 </wgt>
<wgt id='1630'> +3.8979544E-01 </wgt>
<wgt id='1631'> +3.8838451E-01 </wgt>
<wgt id='1632'> +3.8957669E-01 </wgt>
<wgt id='1633'> +3.8857985E-01 </wgt>
<wgt id='1634'> +3.9051592E-01 </wgt>
<wgt id='1635'> +3.8850106E-01 </wgt>
<wgt id='1636'> +3.9131369E-01 </wgt>
<wgt id='1637'> +3.9038720E-01 </wgt>
<wgt id='1638'> +3.8978556E-01 </wgt>
<wgt id='1639'> +3.9106811E-01 </wgt>
<wgt id='1640'> +3.9008676E-01 </wgt>
<wgt id='1641'> +3.8383458E-01 </wgt>
<wgt id='1642'> +3.8710051E-01 </wgt>
<wgt id='1643'> +3.8874961E-01 </wgt>
<wgt id='1644'> +3.8767620E-01 </wgt>
<wgt id='1645'> +3.8878619E-01 </wgt>
<wgt id='1646'> +3.8954231E-01 </wgt>
<wgt id='1647'> +3.8956933E-01 </wgt>
<wgt id='1648'> +3.8949089E-01 </wgt>
<wgt id='1649'> +3.9032660E-01 </wgt>
<wgt id='1650'> +3.8929461E-01 </wgt>
<wgt id='1651'> +3.8958602E-01 </wgt>
<wgt id='1652'> +3.8935405E-01 </wgt>
<wgt id='1653'> +3.8917611E-01 </wgt>
<wgt id='1654'> +3.8875644E-01 </wgt>
<wgt id='1655'> +3.8944063E-01 </wgt>
<wgt id='1656'> +3.9051855E-01 </wgt>
<wgt id='1657'> +3.8822985E-01 </wgt>
<wgt id='1658'> +3.8936470E-01 </wgt>
<wgt id='1659'> +3.9033860E-01 </wgt>
<wgt id='1660'> +3.8813316E-01 </wgt>
<wgt id='1661'> +3.9065855E-01 </wgt>
<wgt id='1662'> +3.9080595E-01 </wgt>
<wgt id='1663'> +3.9107497E-01 </wgt>
<wgt id='1664'> +3.8861341E-01 </wgt>
<wgt id='1665'> +3.8911496E-01 </wgt>
<wgt id='1666'> +3.8987163E-01 </wgt>
<wgt id='1667'> +3.8873008E-01 </wgt>
<wgt id='1668'> +3.8904763E-01 </wgt>
<wgt id='1669'> +3.8858640E-01 </wgt>
<wgt id='1670'> +3.8938846E-01 </wgt>
<wgt id='1671'> +3.8883565E-01 </wgt>
<wgt id='1672'> +3.8877667E-01 </wgt>
<wgt id='1673'> +3.8928730E-01 </wgt>
<wgt id='1674'> +3.8832535E-01 </wgt>
<wgt id='1675'> +3.8965306E-01 </wgt>
<wgt id='1676'> +3.8961477E-01 </wgt>
<wgt id='1677'> +3.8890955E-01 </wgt>
<wgt id='1678'> +3.8997211E-01 </wgt>
<wgt id='1679'> +3.8922751E-01 </wgt>
<wgt id='1680'> +3.8936948E-01 </wgt>
<wgt id='1681'> +3.8923871E-01 </wgt>
<wgt id='1682'> +3.8900266E-01 </wgt>
<wgt id='1683'> +3.8848994E-01 </wgt>
<wgt id='1684'> +3.8956942E-01 </wgt>
<wgt id='1685'> +3.8944363E-01 </wgt>
<wgt id='1686'> +3.8956176E-01 </wgt>
<wgt id='1687'> +3.8941573E-01 </wgt>
<wgt id='1688'> +3.8947241E-01 </wgt>
<wgt id='1689'> +3.8932088E-01 </wgt>
<wgt id='1690'> +3.8941515E-01 </wgt>
<wgt id='1691'> +3.9064378E-01 </wgt>
<wgt id='1692'> +3.8887432E-01 </wgt>
<wgt id='1693'> +3.8899575E-01 </wgt>
<wgt id='1694'> +3.8881831E-01 </wgt>
<wgt id='1695'> +3.8941049E-01 </wgt>
<wgt id='1696'> +3.8878917E-01 </wgt>
<wgt id='1697'> +3.8950719E-01 </wgt>
<wgt id='1698'> +3.8944724E-01 </wgt>
<wgt id='1699'> +3.8902406E-01 </wgt>
<wgt id='1700'> +3.8951331E-01 </wgt>
<wgt id='1701'> +3.8918266E-01 </wgt>
<wgt id='1702'> +3.8894159E-01 </wgt>
<wgt id='1703'> +3.8988813E-01 </wgt>
<wgt id='1704'> +3.8982617E-01 </wgt>
<wgt id='1705'> +3.8918689E-01 </wgt>
<wgt id='1706'> +3.8931302E-01 </wgt>
<wgt id='1707'> +3.8906839E-01 </wgt>
<wgt id='1708'> +3.8915820E-01 </wgt>
<wgt id='1709'> +3.8960721E-01 </wgt>
<wgt id='1710'> +3.8902409E-01 </wgt>
<wgt id='1711'> +3.8915934E-01 </wgt>
<wgt id='1712'> +3.8987330E-01 </wgt>
<wgt id='1713'> +3.8296809E-01 </wgt>
<wgt id='1714'> +3.9450082E-01 </wgt>
<wgt id='1715'> +3.9718756E-01 </wgt>
<wgt id='1716'> +3.9765473E-01 </wgt>
<wgt id='1717'> +4.0541284E-01 </wgt>
<wgt id='1718'> +3.8815031E-01 </wgt>
<wgt id='1719'> +3.8965291E-01 </wgt>
<wgt id='1720'> +4.0670563E-01 </wgt>
<wgt id='1721'> +3.8183478E-01 </wgt>
<wgt id='1722'> +4.0224679E-01 </wgt>
<wgt id='1723'> +4.0532497E-01 </wgt>
<wgt id='1724'> +4.0652809E-01 </wgt>
<wgt id='1725'> +4.0124616E-01 </wgt>
<wgt id='1726'> +4.0044016E-01 </wgt>
<wgt id='1727'> +4.0005711E-01 </wgt>
<wgt id='1728'> +4.0131243E-01 </wgt>
<wgt id='1729'> +3.9843145E-01 </wgt>
<wgt id='1730'> +3.8831377E-01 </wgt>
<wgt id='1731'> +3.6481257E-01 </wgt>
<wgt id='1732'> +4.0473338E-01 </wgt>
<wgt id='1733'> +4.0384690E-01 </wgt>
<wgt id='1734'> +4.0836324E-01 </wgt>
<wgt id='1735'> +3.7822525E-01 </wgt>
<wgt id='1736'> +4.0589700E-01 </wgt>
<wgt id='1737'> +3.9307303E-01 </wgt>
<wgt id='1738'> +4.0317229E-01 </wgt>
<wgt id='1739'> +4.0061059E-01 </wgt>
<wgt id='1740'> +3.9471250E-01 </wgt>
<wgt id='1741'> +3.9199324E-01 </wgt>
<wgt id='1742'> +4.1278345E-01 </wgt>
<wgt id='1743'> +3.8119732E-01 </wgt>
<wgt id='1744'> +4.0340942E-01 </wgt>
<wgt id='1745'> +3.7993779E-01 </wgt>
<wgt id='1746'> +3.8926529E-01 </wgt>
<wgt id='1747'> +4.0270620E-01 </wgt>
<wgt id='1748'> +3.9268996E-01 </wgt>
<wgt id='1749'> +4.1007419E-01 </wgt>
<wgt id='1750'> +3.9441066E-01 </wgt>
<wgt id='1751'> +4.0032205E-01 </wgt>
<wgt id='1752'> +3.9025282E-01 </wgt>
<wgt id='1753'> +4.0584261E-01 </wgt>
<wgt id='1754'> +4.0800247E-01 </wgt>
<wgt id='1755'> +4.0220572E-01 </wgt>
<wgt id='1756'> +4.0036650E-01 </wgt>
<wgt id='1757'> +4.0683484E-01 </wgt>
<wgt id='1758'> +3.9572227E-01 </wgt>
<wgt id='1759'> +3.8858070E-01 </wgt>
<wgt id='1760'> +3.9723178E-01 </wgt>
<wgt id='1761'> +3.9689688E-01 </wgt>
<wgt id='1762'> +4.0005711E-01 </wgt>
<wgt id='1763'> +3.9214604E-01 </wgt>
<wgt id='1764'> +4.0638204E-01 </wgt>
<wgt id='1765'> +3.9572310E-01 </wgt>
<wgt id='1766'> +4.0846227E-01 </wgt>
<wgt id='1767'> +4.0238947E-01 </wgt>
<wgt id='1768'> +3.7081346E-01 </wgt>
<wgt id='1769'> +3.9795419E-01 </wgt>
<wgt id='1770'> +4.1700721E-01 </wgt>
<wgt id='1771'> +4.0594340E-01 </wgt>
<wgt id='1772'> +4.0503299E-01 </wgt>
<wgt id='1773'> +3.9935881E-01 </wgt>
<wgt id='1774'> +3.7693121E-01 </wgt>
<wgt id='1775'> +3.9134925E-01 </wgt>
<wgt id='1776'> +4.0935100E-01 </wgt>
<wgt id='1777'> +4.0718858E-01 </wgt>
<wgt id='1778'> +3.8878628E-01 </wgt>
<wgt id='1779'> +3.9460189E-01 </wgt>
<wgt id='1780'> +3.9083287E-01 </wgt>
<wgt id='1781'> +4.0026480E-01 </wgt>
<wgt id='1782'> +4.1787716E-01 </wgt>
<wgt id='1783'> +3.9435759E-01 </wgt>
<wgt id='1784'> +3.9779266E-01 </wgt>
<wgt id='1785'> +3.9977939E-01 </wgt>
<wgt id='1786'> +4.0782113E-01 </wgt>
<wgt id='1787'> +3.8991459E-01 </wgt>
<wgt id='1788'> +4.0089677E-01 </wgt>
<wgt id='1789'> +3.9539915E-01 </wgt>
<wgt id='1790'> +3.9408070E-01 </wgt>
<wgt id='1791'> +3.6519077E-01 </wgt>
<wgt id='1792'> +3.9169862E-01 </wgt>
<wgt id='1793'> +4.0711378E-01 </wgt>
<wgt id='1794'> +3.9271912E-01 </wgt>
<wgt id='1795'> +3.7917904E-01 </wgt>
<wgt id='1796'> +3.9644080E-01 </wgt>
<wgt id='1797'> +3.8936951E-01 </wgt>
<wgt id='1798'> +3.9562659E-01 </wgt>
<wgt id='1799'> +4.0433323E-01 </wgt>
<wgt id='1800'> +4.0805686E-01 </wgt>
<wgt id='1801'> +3.8523448E-01 </wgt>
<wgt id='1802'> +4.0200880E-01 </wgt>
<wgt id='1803'> +3.9682478E-01 </wgt>
<wgt id='1804'> +4.0477787E-01 </wgt>
<wgt id='1805'> +4.0552496E-01 </wgt>
<wgt id='1806'> +3.8861200E-01 </wgt>
<wgt id='1807'> +3.8988736E-01 </wgt>
<wgt id='1808'> +3.8802730E-01 </wgt>
<wgt id='1809'> +3.9842565E-01 </wgt>
<wgt id='1810'> +3.8993540E-01 </wgt>
<wgt id='1811'> +4.0186416E-01 </wgt>
<wgt id='1812'> +3.9463861E-01 </wgt>
<wgt id='1813'> +4.0530032E-01 </wgt>
<wgt id='1814'> +3.9324747E-01 </wgt>
<wgt id='1815'> +4.0516956E-01 </wgt>
<wgt id='1816'> +3.9352155E-01 </wgt>
<wgt id='1817'> +3.9899236E-01 </wgt>
<wgt id='1818'> +3.9709597E-01 </wgt>
<wgt id='1819'> +3.9234135E-01 </wgt>
<wgt id='1820'> +4.0396281E-01 </wgt>
<wgt id='1821'> +3.9143878E-01 </wgt>
<wgt id='1822'> +3.9355370E-01 </wgt>
<wgt id='1823'> +3.9651158E-01 </wgt>
<wgt id='1824'> +4.1040983E-01 </wgt>
<wgt id='1825'> +3.9202241E-01 </wgt>
<wgt id='1826'> +3.9794163E-01 </wgt>
<wgt id='1827'> +3.8577887E-01 </wgt>
<wgt id='1828'> +3.9225223E-01 </wgt>
<wgt id='1829'> +3.7839204E-01 </wgt>
<wgt id='1830'> +3.8160693E-01 </wgt>
<wgt id='1831'> +3.9652124E-01 </wgt>
<wgt id='1832'> +4.0139303E-01 </wgt>
<wgt id='1833'> +3.7905269E-01 </wgt>
<wgt id='1834'> +3.6586771E-01 </wgt>
<wgt id='1835'> +3.9889186E-01 </wgt>
<wgt id='1836'> +4.1830380E-01 </wgt>
<wgt id='1837'> +4.0146336E-01 </wgt>
<wgt id='1838'> +4.0385679E-01 </wgt>
<wgt id='1839'> +4.0979929E-01 </wgt>
<wgt id='1840'> +3.8480495E-01 </wgt>
<wgt id='1841'> +3.8708349E-01 </wgt>
<wgt id='1842'> +3.8574494E-01 </wgt>
<wgt id='1843'> +3.7883013E-01 </wgt>
<wgt id='1844'> +3.8231755E-01 </wgt>
<wgt id='1845'> +3.9461830E-01 </wgt>
<wgt id='1846'> +4.0010847E-01 </wgt>
<wgt id='1847'> +3.9716541E-01 </wgt>
<wgt id='1848'> +3.9485656E-01 </wgt>
<wgt id='1849'> +4.0397824E-01 </wgt>
<wgt id='1850'> +3.9388350E-01 </wgt>
<wgt id='1851'> +3.9643346E-01 </wgt>
<wgt id='1852'> +3.9584156E-01 </wgt>
<wgt id='1853'> +3.8598808E-01 </wgt>
<wgt id='1854'> +3.9898097E-01 </wgt>
<wgt id='1855'> +3.9375101E-01 </wgt>
<wgt id='1856'> +3.9763199E-01 </wgt>
<wgt id='1857'> +4.0333850E-01 </wgt>
<wgt id='1858'> +3.9705967E-01 </wgt>
<wgt id='1859'> +3.9541227E-01 </wgt>
<wgt id='1860'> +3.9447607E-01 </wgt>
<wgt id='1861'> +3.9408385E-01 </wgt>
<wgt id='1862'> +3.8998073E-01 </wgt>
<wgt id='1863'> +4.0044299E-01 </wgt>
<wgt id='1864'> +3.9038977E-01 </wgt>
<wgt id='1865'> +3.9577468E-01 </wgt>
<wgt id='1866'> +3.9357763E-01 </wgt>
<wgt id='1867'> +3.9558345E-01 </wgt>
<wgt id='1868'> +3.8903268E-01 </wgt>
<wgt id='1869'> +3.9416939E-01 </wgt>
<wgt id='1870'> +3.9430991E-01 </wgt>
<wgt id='1871'> +3.8553930E-01 </wgt>
<wgt id='1872'> +3.7311891E-01 </wgt>
<wgt id='1873'> +3.8568629E-01 </wgt>
<wgt id='1874'> +3.8618494E-01 </wgt>
<wgt id='1875'> +3.9389131E-01 </wgt>
<wgt id='1876'> +4.0235880E-01 </wgt>
<wgt id='1877'> +3.7398741E-01 </wgt>
<wgt id='1878'> +3.9210822E-01 </wgt>
<wgt id='1879'> +3.7963438E-01 </wgt>
<wgt id='1880'> +3.6037458E-01 </wgt>
<wgt id='1881'> +3.9758043E-01 </wgt>
<wgt id='1882'> +3.8165096E-01 </wgt>
<wgt id='1883'> +4.4613458E-01 </wgt>
<wgt id='1884'> +3.8077900E-01 </wgt>
<wgt id='1885'> +3.9211059E-01 </wgt>
<wgt id='1886'> +3.9084063E-01 </wgt>
<wgt id='1887'> +3.9658395E-01 </wgt>
<wgt id='1888'> +3.9786781E-01 </wgt>
<wgt id='1889'> +3.9878063E-01 </wgt>
<wgt id='1890'> +3.9697945E-01 </wgt>
<wgt id='1891'> +3.9197078E-01 </wgt>
<wgt id='1892'> +4.0867715E-01 </wgt>
<wgt id='1893'> +3.8658536E-01 </wgt>
<wgt id='1894'> +4.0573928E-01 </wgt>
<wgt id='1895'> +3.9491250E-01 </wgt>
<wgt id='1896'> +3.9542359E-01 </wgt>
<wgt id='1897'> +3.9957128E-01 </wgt>
<wgt id='1898'> +3.9871651E-01 </wgt>
<wgt id='1899'> +4.0868448E-01 </wgt>
<wgt id='1900'> +3.9414810E-01 </wgt>
<wgt id='1901'> +3.8471447E-01 </wgt>
<wgt id='1902'> +3.9107301E-01 </wgt>
<wgt id='1903'> +3.9413476E-01 </wgt>
<wgt id='1904'> +3.8810020E-01 </wgt>
<wgt id='1905'> +3.8790741E-01 </wgt>
<wgt id='1906'> +3.9040852E-01 </wgt>
<wgt id='1907'> +4.0498083E-01 </wgt>
<wgt id='1908'> +4.0754900E-01 </wgt>
<wgt id='1909'> +3.8873910E-01 </wgt>
<wgt id='1910'> +4.0578598E-01 </wgt>
<wgt id='1911'> +3.7346719E-01 </wgt>
<wgt id='1912'> +4.0143641E-01 </wgt>
<wgt id='1913'> +3.8166132E-01 </wgt>
<wgt id='1914'> +3.9349320E-01 </wgt>
<wgt id='1915'> +3.9304752E-01 </wgt>
<wgt id='1916'> +3.8100935E-01 </wgt>
<wgt id='1917'> +3.7621187E-01 </wgt>
<wgt id='1918'> +4.0473273E-01 </wgt>
<wgt id='1919'> +3.9352155E-01 </wgt>
<wgt id='1920'> +3.9899236E-01 </wgt>
<wgt id='1921'> +3.9709597E-01 </wgt>
<wgt id='1922'> +3.9234135E-01 </wgt>
<wgt id='1923'> +4.0396281E-01 </wgt>
<wgt id='1924'> +3.9143878E-01 </wgt>
<wgt id='1925'> +3.9355370E-01 </wgt>
<wgt id='1926'> +3.9651158E-01 </wgt>
<wgt id='1927'> +4.1040983E-01 </wgt>
<wgt id='1928'> +3.9202241E-01 </wgt>
<wgt id='1929'> +3.9794163E-01 </wgt>
<wgt id='1930'> +3.8577887E-01 </wgt>
<wgt id='1931'> +3.9225223E-01 </wgt>
<wgt id='1932'> +3.7839204E-01 </wgt>
<wgt id='1933'> +3.8160693E-01 </wgt>
<wgt id='1934'> +3.9652124E-01 </wgt>
<wgt id='1935'> +4.0139303E-01 </wgt>
<wgt id='1936'> +3.7905269E-01 </wgt>
<wgt id='1937'> +3.6586771E-01 </wgt>
<wgt id='1938'> +3.9889186E-01 </wgt>
<wgt id='1939'> +4.1830380E-01 </wgt>
<wgt id='1940'> +4.0146336E-01 </wgt>
<wgt id='1941'> +4.0385679E-01 </wgt>
<wgt id='1942'> +4.0979929E-01 </wgt>
<wgt id='1943'> +3.8480495E-01 </wgt>
<wgt id='1944'> +3.8708349E-01 </wgt>
<wgt id='1945'> +3.8574494E-01 </wgt>
<wgt id='1946'> +3.7883013E-01 </wgt>
<wgt id='1947'> +3.8231755E-01 </wgt>
<wgt id='1948'> +3.9461830E-01 </wgt>
<wgt id='1949'> +4.0010847E-01 </wgt>
<wgt id='1950'> +3.9716541E-01 </wgt>
<wgt id='1951'> +3.9485656E-01 </wgt>
<wgt id='1952'> +4.0397824E-01 </wgt>
<wgt id='1953'> +3.9388350E-01 </wgt>
<wgt id='1954'> +3.9643346E-01 </wgt>
<wgt id='1955'> +3.9584156E-01 </wgt>
<wgt id='1956'> +3.8598808E-01 </wgt>
<wgt id='1957'> +3.9898097E-01 </wgt>
<wgt id='1958'> +3.9375101E-01 </wgt>
<wgt id='1959'> +3.9763199E-01 </wgt>
<wgt id='1960'> +4.0333850E-01 </wgt>
<wgt id='1961'> +3.9705967E-01 </wgt>
<wgt id='1962'> +3.9541227E-01 </wgt>
<wgt id='1963'> +3.9447607E-01 </wgt>
<wgt id='1964'> +3.9408385E-01 </wgt>
<wgt id='1965'> +3.8998073E-01 </wgt>
<wgt id='1966'> +4.0044299E-01 </wgt>
<wgt id='1967'> +3.9038977E-01 </wgt>
<wgt id='1968'> +3.9577468E-01 </wgt>
<wgt id='1969'> +3.9357763E-01 </wgt>
<wgt id='1970'> +3.9558345E-01 </wgt>
<wgt id='1971'> +3.8903268E-01 </wgt>
<wgt id='1972'> +3.9416939E-01 </wgt>
<wgt id='1973'> +3.9430991E-01 </wgt>
<wgt id='1974'> +3.8553930E-01 </wgt>
<wgt id='1975'> +3.7311891E-01 </wgt>
<wgt id='1976'> +3.8568629E-01 </wgt>
<wgt id='1977'> +3.8618494E-01 </wgt>
<wgt id='1978'> +3.9389131E-01 </wgt>
<wgt id='1979'> +4.0235880E-01 </wgt>
<wgt id='1980'> +3.7398741E-01 </wgt>
<wgt id='1981'> +3.9210822E-01 </wgt>
<wgt id='1982'> +3.7963438E-01 </wgt>
<wgt id='1983'> +3.6037458E-01 </wgt>
<wgt id='1984'> +3.9758043E-01 </wgt>
<wgt id='1985'> +3.8165096E-01 </wgt>
<wgt id='1986'> +4.4613458E-01 </wgt>
<wgt id='1987'> +3.8077900E-01 </wgt>
<wgt id='1988'> +3.9211059E-01 </wgt>
<wgt id='1989'> +3.9084063E-01 </wgt>
<wgt id='1990'> +3.9658395E-01 </wgt>
<wgt id='1991'> +3.9786781E-01 </wgt>
<wgt id='1992'> +3.9878063E-01 </wgt>
<wgt id='1993'> +3.9697945E-01 </wgt>
<wgt id='1994'> +3.9197078E-01 </wgt>
<wgt id='1995'> +4.0867715E-01 </wgt>
<wgt id='1996'> +3.8658536E-01 </wgt>
<wgt id='1997'> +4.0573928E-01 </wgt>
<wgt id='1998'> +3.9491250E-01 </wgt>
<wgt id='1999'> +3.9542359E-01 </wgt>
<wgt id='2000'> +3.9957128E-01 </wgt>
<wgt id='2001'> +3.9871651E-01 </wgt>
<wgt id='2002'> +4.0868448E-01 </wgt>
<wgt id='2003'> +3.9414810E-01 </wgt>
<wgt id='2004'> +3.8471447E-01 </wgt>
<wgt id='2005'> +3.9107301E-01 </wgt>
<wgt id='2006'> +3.9413476E-01 </wgt>
<wgt id='2007'> +3.8810020E-01 </wgt>
<wgt id='2008'> +3.8790741E-01 </wgt>
<wgt id='2009'> +3.9040852E-01 </wgt>
<wgt id='2010'> +4.0498083E-01 </wgt>
<wgt id='2011'> +4.0754900E-01 </wgt>
<wgt id='2012'> +3.8873910E-01 </wgt>
<wgt id='2013'> +4.0578598E-01 </wgt>
<wgt id='2014'> +3.7346719E-01 </wgt>
<wgt id='2015'> +4.0143641E-01 </wgt>
<wgt id='2016'> +3.8166132E-01 </wgt>
<wgt id='2017'> +3.9349320E-01 </wgt>
<wgt id='2018'> +3.9304752E-01 </wgt>
<wgt id='2019'> +3.8100935E-01 </wgt>
<wgt id='2020'> +3.9184516E-01 </wgt>
<wgt id='2021'> +3.9438751E-01 </wgt>
<wgt id='2022'> +3.9374517E-01 </wgt>
</rwgt>
</event>
<event>
13      1 +3.9556008E-01 8.90896200e+01 7.81860800e-03 1.13192200e-01
       21 -1    0    0  502  503 +0.0000000000e+00 +0.0000000000e+00 +1.0484556246e+02 1.0484556246e+02 0.0000000000e+00 0.0000e+00 -1.0000e+00
        2 -1    0    0  501    0 +0.0000000000e+00 +0.0000000000e+00 -1.9268235490e+03 1.9268235490e+03 2.5500000000e-03 0.0000e+00 -1.0000e+00
  8000001  2    1    2  502    0 +3.4301388126e+01 -8.9138951272e+01 -1.0699596446e+03 1.2304211872e+03 6.0000026589e+02 0.0000e+00 0.0000e+00
        1  1    1    2  501    0 -4.0609746020e+01 +7.9085211342e+01 -7.7223963524e+02 7.7734012914e+02 5.0400000000e-03 0.0000e+00 -1.0000e+00
       -5  1    1    2    0  503 +6.3083578938e+00 +1.0053739930e+01 +2.0221293253e+01 2.3907795119e+01 4.6700000000e+00 0.0000e+00 1.0000e+00
        6  2    3    3  502    0 -2.0549010060e+02 -5.8294781802e+01 -2.5234631290e+02 3.7289831129e+02 1.7248195820e+02 0.0000e+00 0.0000e+00
        5  1    6    6  502    0 -6.0861107359e+01 -7.2429829928e+01 -1.5891532649e+02 1.8500282308e+02 4.6700000000e+00 0.0000e+00 -1.0000e+00
       24  2    6    6    0    0 -1.4462899324e+02 +1.4135048126e+01 -9.3430986402e+01 1.8789548821e+02 7.3878413622e+01 0.0000e+00 0.0000e+00
       14  1    8    8    0    0 -1.0512233280e+02 -7.9081578226e+00 -2.9304086963e+01 1.0941651305e+02 0.0000000000e+00 0.0000e+00 -1.0000e+00
      -13  1    8    8    0    0 -3.9506660433e+01 +2.2043205948e+01 -6.4126899440e+01 7.8478975164e+01 1.0566000000e-01 0.0000e+00 1.0000e+00
       23  2    3    3    0    0 +2.3979148872e+02 -3.0844169470e+01 -8.1761333166e+02 8.5752287590e+02 9.1665706431e+01 0.0000e+00 0.0000e+00
        5  1   11   11  504    0 +8.4992867655e+01 -1.4991697517e+01 -4.5128946545e+02 4.5949159848e+02 4.6700000000e+00 0.0000e+00 -1.0000e+00
       -5  1   11   11    0  504 +1.5479862107e+02 -1.5852471953e+01 -3.6632386621e+02 3.9803127742e+02 4.6700000000e+00 0.0000e+00 1.0000e+00
<mgrwt>
<rscale>  1 0.88522305e+02</rscale>
<asrwt>0</asrwt>
<pdfrwt beam="1">  1       21 0.16130088e-01 0.87958599e+02</pdfrwt>
<pdfrwt beam="2">  1        2 0.29643437e+00 0.89089624e+02</pdfrwt>
<totfact> 0.44338283e+03</totfact>
</mgrwt>
<rwgt>
<wgt id='1001'> +3.9556008E-01 </wgt>
<wgt id='1002'> +2.6199624E-01 </wgt>
<wgt id='1003'> +2.6191435E-01 </wgt>
<wgt id='1004'> +3.0237793E-01 </wgt>
<wgt id='1005'> +2.4108440E-01 </wgt>
<wgt id='1006'> +3.5637566E-01 </wgt>
<wgt id='1007'> +2.4178778E-01 </wgt>
<wgt id='1008'> +2.4171590E-01 </wgt>
<wgt id='1009'> +2.7701196E-01 </wgt>
<wgt id='1010'> +2.2336185E-01 </wgt>
<wgt id='1011'> +4.4480034E-01 </wgt>
<wgt id='1012'> +2.8599236E-01 </wgt>
<wgt id='1013'> +2.8589783E-01 </wgt>
<wgt id='1014'> +3.3301266E-01 </wgt>
<wgt id='1015'> +2.6194051E-01 </wgt>
<wgt id='1016'> +3.7464670E-01 </wgt>
<wgt id='1017'> +2.4806403E-01 </wgt>
<wgt id='1018'> +2.4798691E-01 </wgt>
<wgt id='1019'> +2.8589783E-01 </wgt>
<wgt id='1020'> +2.2831279E-01 </wgt>
<wgt id='1021'> +3.3753398E-01 </wgt>
<wgt id='1022'> +2.2893020E-01 </wgt>
<wgt id='1023'> +2.2886251E-01 </wgt>
<wgt id='1024'> +2.6191435E-01 </wgt>
<wgt id='1025'> +2.1152910E-01 </wgt>
<wgt id='1026'> +4.2128361E-01 </wgt>
<wgt id='1027'> +2.7078411E-01 </wgt>
<wgt id='1028'> +2.7069505E-01 </wgt>
<wgt id='1029'> +3.1486292E-01 </wgt>
<wgt id='1030'> +2.4806404E-01 </wgt>
<wgt id='1031'> +4.1625663E-01 </wgt>
<wgt id='1032'> +2.7709901E-01 </wgt>
<wgt id='1033'> +2.7701196E-01 </wgt>
<wgt id='1034'> +3.1959302E-01 </wgt>
<wgt id='1035'> +2.5477231E-01 </wgt>
<wgt id='1036'> +3.7502200E-01 </wgt>
<wgt id='1037'> +2.5572563E-01 </wgt>
<wgt id='1038'> +2.5564920E-01 </wgt>
<wgt id='1039'> +2.9278291E-01 </wgt>
<wgt id='1040'> +2.3604353E-01 </wgt>
<wgt id='1041'> +4.6807325E-01 </wgt>
<wgt id='1042'> +3.0247838E-01 </wgt>
<wgt id='1043'> +3.0237793E-01 </wgt>
<wgt id='1044'> +3.5197187E-01 </wgt>
<wgt id='1045'> +2.7681256E-01 </wgt>
<wgt id='1046'> +3.9556008E-01 </wgt>
<wgt id='1047'> +3.9556008E-01 </wgt>
<wgt id='1048'> +3.9556008E-01 </wgt>
<wgt id='1049'> +3.9572482E-01 </wgt>
<wgt id='1050'> +3.9502995E-01 </wgt>
<wgt id='1051'> +3.9641770E-01 </wgt>
<wgt id='1052'> +3.9508514E-01 </wgt>
<wgt id='1053'> +3.9736240E-01 </wgt>
<wgt id='1054'> +3.9577234E-01 </wgt>
<wgt id='1055'> +3.9675451E-01 </wgt>
<wgt id='1056'> +3.9714802E-01 </wgt>
<wgt id='1057'> +3.9485466E-01 </wgt>
<wgt id='1058'> +3.9549639E-01 </wgt>
<wgt id='1059'> +3.9339406E-01 </wgt>
<wgt id='1060'> +3.9590834E-01 </wgt>
<wgt id='1061'> +3.9516170E-01 </wgt>
<wgt id='1062'> +3.9580809E-01 </wgt>
<wgt id='1063'> +3.9489371E-01 </wgt>
<wgt id='1064'> +3.9470191E-01 </wgt>
<wgt id='1065'> +3.9525532E-01 </wgt>
<wgt id='1066'> +3.9612843E-01 </wgt>
<wgt id='1067'> +3.9640082E-01 </wgt>
<wgt id='1068'> +3.9442008E-01 </wgt>
<wgt id='1069'> +3.9647288E-01 </wgt>
<wgt id='1070'> +3.9592397E-01 </wgt>
<wgt id='1071'> +3.9521927E-01 </wgt>
<wgt id='1072'> +3.9638528E-01 </wgt>
<wgt id='1073'> +3.9548800E-01 </wgt>
<wgt id='1074'> +3.9629792E-01 </wgt>
<wgt id='1075'> +3.9385525E-01 </wgt>
<wgt id='1076'> +3.9675189E-01 </wgt>
<wgt id='1077'> +3.9735486E-01 </wgt>
<wgt id='1078'> +3.9472683E-01 </wgt>
<wgt id='1079'> +3.9786572E-01 </wgt>
<wgt id='1080'> +3.9720083E-01 </wgt>
<wgt id='1081'> +3.9598570E-01 </wgt>
<wgt id='1082'> +3.9651006E-01 </wgt>
<wgt id='1083'> +3.9485335E-01 </wgt>
<wgt id='1084'> +3.9411929E-01 </wgt>
<wgt id='1085'> +3.9622829E-01 </wgt>
<wgt id='1086'> +3.9500069E-01 </wgt>
<wgt id='1087'> +3.9556630E-01 </wgt>
<wgt id='1088'> +3.9533662E-01 </wgt>
<wgt id='1089'> +3.9496107E-01 </wgt>
<wgt id='1090'> +3.9512519E-01 </wgt>
<wgt id='1091'> +3.9464731E-01 </wgt>
<wgt id='1092'> +3.9513486E-01 </wgt>
<wgt id='1093'> +3.9546879E-01 </wgt>
<wgt id='1094'> +3.9613181E-01 </wgt>
<wgt id='1095'> +3.9477152E-01 </wgt>
<wgt id='1096'> +3.9539028E-01 </wgt>
<wgt id='1097'> +3.9545678E-01 </wgt>
<wgt id='1098'> +3.9551679E-01 </wgt>
<wgt id='1099'> +3.9580670E-01 </wgt>
<wgt id='1100'> +3.9571345E-01 </wgt>
<wgt id='1101'> +3.9541177E-01 </wgt>
<wgt id='1102'> +3.9507569E-01 </wgt>
<wgt id='1103'> +3.9612389E-01 </wgt>
<wgt id='1104'> +3.9570083E-01 </wgt>
<wgt id='1105'> +3.9542186E-01 </wgt>
<wgt id='1106'> +3.9575769E-01 </wgt>
<wgt id='1107'> +3.9495229E-01 </wgt>
<wgt id='1108'> +3.9559674E-01 </wgt>
<wgt id='1109'> +3.9610293E-01 </wgt>
<wgt id='1110'> +3.9556073E-01 </wgt>
<wgt id='1111'> +3.9519870E-01 </wgt>
<wgt id='1112'> +3.9598796E-01 </wgt>
<wgt id='1113'> +3.9486790E-01 </wgt>
<wgt id='1114'> +3.9461925E-01 </wgt>
<wgt id='1115'> +3.9606834E-01 </wgt>
<wgt id='1116'> +3.9583472E-01 </wgt>
<wgt id='1117'> +3.9597656E-01 </wgt>
<wgt id='1118'> +3.9576618E-01 </wgt>
<wgt id='1119'> +3.9615936E-01 </wgt>
<wgt id='1120'> +3.9536690E-01 </wgt>
<wgt id='1121'> +3.9593116E-01 </wgt>
<wgt id='1122'> +3.9595657E-01 </wgt>
<wgt id='1123'> +3.9580299E-01 </wgt>
<wgt id='1124'> +3.9527880E-01 </wgt>
<wgt id='1125'> +3.9544624E-01 </wgt>
<wgt id='1126'> +3.9566818E-01 </wgt>
<wgt id='1127'> +3.9538588E-01 </wgt>
<wgt id='1128'> +3.9561040E-01 </wgt>
<wgt id='1129'> +3.9520925E-01 </wgt>
<wgt id='1130'> +3.9565592E-01 </wgt>
<wgt id='1131'> +3.9562433E-01 </wgt>
<wgt id='1132'> +3.9567528E-01 </wgt>
<wgt id='1133'> +3.9562757E-01 </wgt>
<wgt id='1134'> +3.9537484E-01 </wgt>
<wgt id='1135'> +3.9561676E-01 </wgt>
<wgt id='1136'> +3.9580779E-01 </wgt>
<wgt id='1137'> +3.9545295E-01 </wgt>
<wgt id='1138'> +3.9577639E-01 </wgt>
<wgt id='1139'> +3.9563892E-01 </wgt>
<wgt id='1140'> +3.9589169E-01 </wgt>
<wgt id='1141'> +3.9539069E-01 </wgt>
<wgt id='1142'> +3.9565658E-01 </wgt>
<wgt id='1143'> +3.9565891E-01 </wgt>
<wgt id='1144'> +3.9554038E-01 </wgt>
<wgt id='1145'> +3.9553492E-01 </wgt>
<wgt id='1146'> +3.9559458E-01 </wgt>
<wgt id='1147'> +3.9560380E-01 </wgt>
<wgt id='1148'> +3.9556008E-01 </wgt>
<wgt id='1149'> +3.9163611E-01 </wgt>
<wgt id='1150'> +3.8293163E-01 </wgt>
<wgt id='1151'> +3.8833533E-01 </wgt>
<wgt id='1152'> +3.9434882E-01 </wgt>
<wgt id='1153'> +3.8591114E-01 </wgt>
<wgt id='1154'> +3.9251731E-01 </wgt>
<wgt id='1155'> +3.9068618E-01 </wgt>
<wgt id='1156'> +3.9084182E-01 </wgt>
<wgt id='1157'> +3.9686285E-01 </wgt>
<wgt id='1158'> +3.9979010E-01 </wgt>
<wgt id='1159'> +3.7398203E-01 </wgt>
<wgt id='1160'> +3.8820403E-01 </wgt>
<wgt id='1161'> +3.9268680E-01 </wgt>
<wgt id='1162'> +3.8234031E-01 </wgt>
<wgt id='1163'> +3.9126898E-01 </wgt>
<wgt id='1164'> +4.0460139E-01 </wgt>
<wgt id='1165'> +3.9655600E-01 </wgt>
<wgt id='1166'> +4.0075776E-01 </wgt>
<wgt id='1167'> +3.9187800E-01 </wgt>
<wgt id='1168'> +3.9233883E-01 </wgt>
<wgt id='1169'> +3.9209161E-01 </wgt>
<wgt id='1170'> +3.9730718E-01 </wgt>
<wgt id='1171'> +3.9893687E-01 </wgt>
<wgt id='1172'> +3.9927407E-01 </wgt>
<wgt id='1173'> +3.8607471E-01 </wgt>
<wgt id='1174'> +3.9966662E-01 </wgt>
<wgt id='1175'> +3.9524007E-01 </wgt>
<wgt id='1176'> +3.8302739E-01 </wgt>
<wgt id='1177'> +3.9281099E-01 </wgt>
<wgt id='1178'> +3.9519461E-01 </wgt>
<wgt id='1179'> +3.8685954E-01 </wgt>
<wgt id='1180'> +3.9976258E-01 </wgt>
<wgt id='1181'> +3.8810919E-01 </wgt>
<wgt id='1182'> +3.9623518E-01 </wgt>
<wgt id='1183'> +3.8696878E-01 </wgt>
<wgt id='1184'> +3.9460078E-01 </wgt>
<wgt id='1185'> +3.9576120E-01 </wgt>
<wgt id='1186'> +3.8960251E-01 </wgt>
<wgt id='1187'> +3.9054289E-01 </wgt>
<wgt id='1188'> +3.8103043E-01 </wgt>
<wgt id='1189'> +3.9340563E-01 </wgt>
<wgt id='1190'> +3.9440350E-01 </wgt>
<wgt id='1191'> +3.8260448E-01 </wgt>
<wgt id='1192'> +3.8722337E-01 </wgt>
<wgt id='1193'> +3.8911548E-01 </wgt>
<wgt id='1194'> +3.9134022E-01 </wgt>
<wgt id='1195'> +3.8943806E-01 </wgt>
<wgt id='1196'> +3.8220192E-01 </wgt>
<wgt id='1197'> +3.8561242E-01 </wgt>
<wgt id='1198'> +3.9602917E-01 </wgt>
<wgt id='1199'> +3.9537643E-01 </wgt>
<wgt id='1200'> +3.8958496E-01 </wgt>
<wgt id='1201'> +3.9639421E-01 </wgt>
<wgt id='1202'> +3.8973476E-01 </wgt>
<wgt id='1203'> +3.9638756E-01 </wgt>
<wgt id='1204'> +3.9507971E-01 </wgt>
<wgt id='1205'> +3.8608435E-01 </wgt>
<wgt id='1206'> +3.9475753E-01 </wgt>
<wgt id='1207'> +3.9356655E-01 </wgt>
<wgt id='1208'> +4.0426106E-01 </wgt>
<wgt id='1209'> +4.0270683E-01 </wgt>
<wgt id='1210'> +3.8415974E-01 </wgt>
<wgt id='1211'> +3.9133253E-01 </wgt>
<wgt id='1212'> +3.8914967E-01 </wgt>
<wgt id='1213'> +3.9717328E-01 </wgt>
<wgt id='1214'> +4.0033179E-01 </wgt>
<wgt id='1215'> +3.8333956E-01 </wgt>
<wgt id='1216'> +3.8728544E-01 </wgt>
<wgt id='1217'> +3.8978363E-01 </wgt>
<wgt id='1218'> +3.8658425E-01 </wgt>
<wgt id='1219'> +3.8542575E-01 </wgt>
<wgt id='1220'> +3.9817405E-01 </wgt>
<wgt id='1221'> +3.8131209E-01 </wgt>
<wgt id='1222'> +3.9626336E-01 </wgt>
<wgt id='1223'> +3.9672731E-01 </wgt>
<wgt id='1224'> +3.8529901E-01 </wgt>
<wgt id='1225'> +3.9812038E-01 </wgt>
<wgt id='1226'> +3.8323638E-01 </wgt>
<wgt id='1227'> +4.0427094E-01 </wgt>
<wgt id='1228'> +3.9422904E-01 </wgt>
<wgt id='1229'> +3.7210984E-01 </wgt>
<wgt id='1230'> +3.8840387E-01 </wgt>
<wgt id='1231'> +3.9655600E-01 </wgt>
<wgt id='1232'> +3.8547533E-01 </wgt>
<wgt id='1233'> +3.9418358E-01 </wgt>
<wgt id='1234'> +3.9719861E-01 </wgt>
<wgt id='1235'> +3.7515369E-01 </wgt>
<wgt id='1236'> +4.0146737E-01 </wgt>
<wgt id='1237'> +3.8563115E-01 </wgt>
<wgt id='1238'> +3.8866245E-01 </wgt>
<wgt id='1239'> +3.9624903E-01 </wgt>
<wgt id='1240'> +4.0102366E-01 </wgt>
<wgt id='1241'> +4.0165975E-01 </wgt>
<wgt id='1242'> +3.9614737E-01 </wgt>
<wgt id='1243'> +3.8845713E-01 </wgt>
<wgt id='1244'> +3.8654238E-01 </wgt>
<wgt id='1245'> +3.9728275E-01 </wgt>
<wgt id='1246'> +3.7936592E-01 </wgt>
<wgt id='1247'> +3.8848951E-01 </wgt>
<wgt id='1248'> +3.9278915E-01 </wgt>
<wgt id='1249'> +3.9623010E-01 </wgt>
<wgt id='1250'> +3.9211124E-01 </wgt>
<wgt id='1251'> +3.8866485E-01 </wgt>
<wgt id='1252'> +3.9079309E-01 </wgt>
<wgt id='1253'> +3.9335915E-01 </wgt>
<wgt id='1254'> +3.8149781E-01 </wgt>
<wgt id='1255'> +4.3067779E-01 </wgt>
<wgt id='1256'> +4.3367593E-01 </wgt>
<wgt id='1257'> +4.2894929E-01 </wgt>
<wgt id='1258'> +4.3025595E-01 </wgt>
<wgt id='1259'> +4.3088689E-01 </wgt>
<wgt id='1260'> +4.3171858E-01 </wgt>
<wgt id='1261'> +4.2929143E-01 </wgt>
<wgt id='1262'> +4.3142582E-01 </wgt>
<wgt id='1263'> +4.3020490E-01 </wgt>
<wgt id='1264'> +4.3000631E-01 </wgt>
<wgt id='1265'> +4.3114683E-01 </wgt>
<wgt id='1266'> +4.3067583E-01 </wgt>
<wgt id='1267'> +4.3068915E-01 </wgt>
<wgt id='1268'> +4.3349733E-01 </wgt>
<wgt id='1269'> +4.2784648E-01 </wgt>
<wgt id='1270'> +4.3121566E-01 </wgt>
<wgt id='1271'> +4.2950349E-01 </wgt>
<wgt id='1272'> +4.3181657E-01 </wgt>
<wgt id='1273'> +4.2980111E-01 </wgt>
<wgt id='1274'> +4.2918786E-01 </wgt>
<wgt id='1275'> +4.3255658E-01 </wgt>
<wgt id='1276'> +4.2891055E-01 </wgt>
<wgt id='1277'> +4.3252885E-01 </wgt>
<wgt id='1278'> +4.2927699E-01 </wgt>
<wgt id='1279'> +4.3185092E-01 </wgt>
<wgt id='1280'> +4.3093009E-01 </wgt>
<wgt id='1281'> +4.2992333E-01 </wgt>
<wgt id='1282'> +4.3335606E-01 </wgt>
<wgt id='1283'> +4.2746187E-01 </wgt>
<wgt id='1284'> +4.2910965E-01 </wgt>
<wgt id='1285'> +4.3220170E-01 </wgt>
<wgt id='1286'> +4.3295445E-01 </wgt>
<wgt id='1287'> +4.3055106E-01 </wgt>
<wgt id='1288'> +4.3024008E-01 </wgt>
<wgt id='1289'> +4.3083023E-01 </wgt>
<wgt id='1290'> +4.3129646E-01 </wgt>
<wgt id='1291'> +4.3046550E-01 </wgt>
<wgt id='1292'> +4.3156498E-01 </wgt>
<wgt id='1293'> +4.2855185E-01 </wgt>
<wgt id='1294'> +4.2802454E-01 </wgt>
<wgt id='1295'> +4.3154308E-01 </wgt>
<wgt id='1296'> +3.9387554E-01 </wgt>
<wgt id='1297'> +3.9472100E-01 </wgt>
<wgt id='1298'> +3.9318178E-01 </wgt>
<wgt id='1299'> +3.9247795E-01 </wgt>
<wgt id='1300'> +3.9542198E-01 </wgt>
<wgt id='1301'> +3.9301000E-01 </wgt>
<wgt id='1302'> +3.9514824E-01 </wgt>
<wgt id='1303'> +3.9381195E-01 </wgt>
<wgt id='1304'> +3.9391434E-01 </wgt>
<wgt id='1305'> +3.9423463E-01 </wgt>
<wgt id='1306'> +3.9336691E-01 </wgt>
<wgt id='1307'> +3.9561826E-01 </wgt>
<wgt id='1308'> +3.9278186E-01 </wgt>
<wgt id='1309'> +3.9457096E-01 </wgt>
<wgt id='1310'> +3.9293226E-01 </wgt>
<wgt id='1311'> +3.9636685E-01 </wgt>
<wgt id='1312'> +3.9295756E-01 </wgt>
<wgt id='1313'> +3.9561195E-01 </wgt>
<wgt id='1314'> +3.9131174E-01 </wgt>
<wgt id='1315'> +3.9318635E-01 </wgt>
<wgt id='1316'> +3.9452772E-01 </wgt>
<wgt id='1317'> +3.9008053E-01 </wgt>
<wgt id='1318'> +4.0071300E-01 </wgt>
<wgt id='1319'> +3.9543252E-01 </wgt>
<wgt id='1320'> +3.9305041E-01 </wgt>
<wgt id='1321'> +3.9381385E-01 </wgt>
<wgt id='1322'> +3.9396812E-01 </wgt>
<wgt id='1323'> +3.9462691E-01 </wgt>
<wgt id='1324'> +3.9325975E-01 </wgt>
<wgt id='1325'> +3.9419952E-01 </wgt>
<wgt id='1326'> +3.9357121E-01 </wgt>
<wgt id='1327'> +3.9432309E-01 </wgt>
<wgt id='1328'> +3.9371238E-01 </wgt>
<wgt id='1329'> +3.9395209E-01 </wgt>
<wgt id='1330'> +3.9381624E-01 </wgt>
<wgt id='1331'> +3.9425525E-01 </wgt>
<wgt id='1332'> +3.9424257E-01 </wgt>
<wgt id='1333'> +3.9426142E-01 </wgt>
<wgt id='1334'> +3.9161037E-01 </wgt>
<wgt id='1335'> +3.9481770E-01 </wgt>
<wgt id='1336'> +3.9367174E-01 </wgt>
<wgt id='1337'> +3.9387554E-01 </wgt>
<wgt id='1338'> +3.9348328E-01 </wgt>
<wgt id='1339'> +3.9363730E-01 </wgt>
<wgt id='1340'> +3.9377660E-01 </wgt>
<wgt id='1341'> +3.9399721E-01 </wgt>
<wgt id='1342'> +3.9411633E-01 </wgt>
<wgt id='1343'> +3.9417881E-01 </wgt>
<wgt id='1344'> +3.8966058E-01 </wgt>
<wgt id='1345'> +3.9071008E-01 </wgt>
<wgt id='1346'> +3.8861533E-01 </wgt>
<wgt id='1347'> +3.9219191E-01 </wgt>
<wgt id='1348'> +3.8779767E-01 </wgt>
<wgt id='1349'> +3.8932895E-01 </wgt>
<wgt id='1350'> +3.8993948E-01 </wgt>
<wgt id='1351'> +3.8967971E-01 </wgt>
<wgt id='1352'> +3.8964229E-01 </wgt>
<wgt id='1353'> +3.9058907E-01 </wgt>
<wgt id='1354'> +3.8901067E-01 </wgt>
<wgt id='1355'> +3.8851907E-01 </wgt>
<wgt id='1356'> +3.9054397E-01 </wgt>
<wgt id='1357'> +3.8958953E-01 </wgt>
<wgt id='1358'> +3.8968717E-01 </wgt>
<wgt id='1359'> +3.8867087E-01 </wgt>
<wgt id='1360'> +3.9210757E-01 </wgt>
<wgt id='1361'> +3.9437576E-01 </wgt>
<wgt id='1362'> +3.8589954E-01 </wgt>
<wgt id='1363'> +3.9102264E-01 </wgt>
<wgt id='1364'> +3.8805092E-01 </wgt>
<wgt id='1365'> +3.8956995E-01 </wgt>
<wgt id='1366'> +3.8979004E-01 </wgt>
<wgt id='1367'> +3.8917564E-01 </wgt>
<wgt id='1368'> +3.8997284E-01 </wgt>
<wgt id='1369'> +3.8777420E-01 </wgt>
<wgt id='1370'> +3.9147391E-01 </wgt>
<wgt id='1371'> +3.8973743E-01 </wgt>
<wgt id='1372'> +3.8988437E-01 </wgt>
<wgt id='1373'> +3.8982603E-01 </wgt>
<wgt id='1374'> +3.8886521E-01 </wgt>
<wgt id='1375'> +3.9032585E-01 </wgt>
<wgt id='1376'> +3.8943538E-01 </wgt>
<wgt id='1377'> +3.8974283E-01 </wgt>
<wgt id='1378'> +3.8939167E-01 </wgt>
<wgt id='1379'> +3.9061204E-01 </wgt>
<wgt id='1380'> +3.8977119E-01 </wgt>
<wgt id='1381'> +3.8910610E-01 </wgt>
<wgt id='1382'> +3.8832572E-01 </wgt>
<wgt id='1383'> +3.8958212E-01 </wgt>
<wgt id='1384'> +3.9024421E-01 </wgt>
<wgt id='1385'> +3.8966058E-01 </wgt>
<wgt id='1386'> +3.8909039E-01 </wgt>
<wgt id='1387'> +3.8928472E-01 </wgt>
<wgt id='1388'> +3.8948083E-01 </wgt>
<wgt id='1389'> +3.8978542E-01 </wgt>
<wgt id='1390'> +3.8992682E-01 </wgt>
<wgt id='1391'> +3.9004544E-01 </wgt>
<wgt id='1392'> +4.1161268E-01 </wgt>
<wgt id='1393'> +4.1163145E-01 </wgt>
<wgt id='1394'> +4.1159079E-01 </wgt>
<wgt id='1395'> +4.1178242E-01 </wgt>
<wgt id='1396'> +4.1148999E-01 </wgt>
<wgt id='1397'> +4.1292237E-01 </wgt>
<wgt id='1398'> +4.1034411E-01 </wgt>
<wgt id='1399'> +4.1345003E-01 </wgt>
<wgt id='1400'> +4.0934176E-01 </wgt>
<wgt id='1401'> +4.1030360E-01 </wgt>
<wgt id='1402'> +4.1321803E-01 </wgt>
<wgt id='1403'> +4.1135681E-01 </wgt>
<wgt id='1404'> +4.1212636E-01 </wgt>
<wgt id='1405'> +4.1111143E-01 </wgt>
<wgt id='1406'> +4.1231242E-01 </wgt>
<wgt id='1407'> +4.1083024E-01 </wgt>
<wgt id='1408'> +4.1215488E-01 </wgt>
<wgt id='1409'> +4.1253596E-01 </wgt>
<wgt id='1410'> +4.1053655E-01 </wgt>
<wgt id='1411'> +4.1148343E-01 </wgt>
<wgt id='1412'> +4.1171637E-01 </wgt>
<wgt id='1413'> +4.1368443E-01 </wgt>
<wgt id='1414'> +4.0942035E-01 </wgt>
<wgt id='1415'> +4.1276547E-01 </wgt>
<wgt id='1416'> +4.1030312E-01 </wgt>
<wgt id='1417'> +4.1250067E-01 </wgt>
<wgt id='1418'> +4.1041003E-01 </wgt>
<wgt id='1419'> +4.1213037E-01 </wgt>
<wgt id='1420'> +4.1145833E-01 </wgt>
<wgt id='1421'> +4.1464268E-01 </wgt>
<wgt id='1422'> +4.0817141E-01 </wgt>
<wgt id='1423'> +4.1395179E-01 </wgt>
<wgt id='1424'> +4.0959915E-01 </wgt>
<wgt id='1425'> +4.1160896E-01 </wgt>
<wgt id='1426'> +4.1158552E-01 </wgt>
<wgt id='1427'> +4.1058982E-01 </wgt>
<wgt id='1428'> +4.1226738E-01 </wgt>
<wgt id='1429'> +4.1151104E-01 </wgt>
<wgt id='1430'> +4.1183148E-01 </wgt>
<wgt id='1431'> +4.1161539E-01 </wgt>
<wgt id='1432'> +4.1147712E-01 </wgt>
<wgt id='1433'> +4.1027280E-01 </wgt>
<wgt id='1434'> +4.1273483E-01 </wgt>
<wgt id='1435'> +4.1173947E-01 </wgt>
<wgt id='1436'> +4.1211635E-01 </wgt>
<wgt id='1437'> +4.1133948E-01 </wgt>
<wgt id='1438'> +4.1225305E-01 </wgt>
<wgt id='1439'> +4.1160280E-01 </wgt>
<wgt id='1440'> +4.0987533E-01 </wgt>
<wgt id='1441'> +4.1190096E-01 </wgt>
<wgt id='1442'> +4.1215671E-01 </wgt>
<wgt id='1443'> +4.0975781E-01 </wgt>
<wgt id='1444'> +4.0979490E-01 </wgt>
<wgt id='1445'> +4.0971590E-01 </wgt>
<wgt id='1446'> +4.0993800E-01 </wgt>
<wgt id='1447'> +4.0963759E-01 </wgt>
<wgt id='1448'> +4.1116782E-01 </wgt>
<wgt id='1449'> +4.0844431E-01 </wgt>
<wgt id='1450'> +4.1153350E-01 </wgt>
<wgt id='1451'> +4.0777857E-01 </wgt>
<wgt id='1452'> +4.0849048E-01 </wgt>
<wgt id='1453'> +4.1097945E-01 </wgt>
<wgt id='1454'> +4.0942112E-01 </wgt>
<wgt id='1455'> +4.1049422E-01 </wgt>
<wgt id='1456'> +4.0913568E-01 </wgt>
<wgt id='1457'> +4.1087224E-01 </wgt>
<wgt id='1458'> +4.0904823E-01 </wgt>
<wgt id='1459'> +4.1016313E-01 </wgt>
<wgt id='1460'> +4.1063408E-01 </wgt>
<wgt id='1461'> +4.0868549E-01 </wgt>
<wgt id='1462'> +4.0944640E-01 </wgt>
<wgt id='1463'> +4.1001753E-01 </wgt>
<wgt id='1464'> +4.1156708E-01 </wgt>
<wgt id='1465'> +4.0738626E-01 </wgt>
<wgt id='1466'> +4.1106684E-01 </wgt>
<wgt id='1467'> +4.0870336E-01 </wgt>
<wgt id='1468'> +4.0777120E-01 </wgt>
<wgt id='1469'> +4.1166448E-01 </wgt>
<wgt id='1470'> +4.1029021E-01 </wgt>
<wgt id='1471'> +4.0961283E-01 </wgt>
<wgt id='1472'> +4.1226802E-01 </wgt>
<wgt id='1473'> +4.0680796E-01 </wgt>
<wgt id='1474'> +4.1146758E-01 </wgt>
<wgt id='1475'> +4.0758524E-01 </wgt>
<wgt id='1476'> +4.0945455E-01 </wgt>
<wgt id='1477'> +4.0997165E-01 </wgt>
<wgt id='1478'> +4.0880896E-01 </wgt>
<wgt id='1479'> +4.1050517E-01 </wgt>
<wgt id='1480'> +4.0978916E-01 </wgt>
<wgt id='1481'> +4.0992493E-01 </wgt>
<wgt id='1482'> +4.0970192E-01 </wgt>
<wgt id='1483'> +4.0967795E-01 </wgt>
<wgt id='1484'> +4.0839018E-01 </wgt>
<wgt id='1485'> +4.1096794E-01 </wgt>
<wgt id='1486'> +4.0989524E-01 </wgt>
<wgt id='1487'> +4.1021295E-01 </wgt>
<wgt id='1488'> +4.0945577E-01 </wgt>
<wgt id='1489'> +4.1041519E-01 </wgt>
<wgt id='1490'> +4.1002438E-01 </wgt>
<wgt id='1491'> +4.0791984E-01 </wgt>
<wgt id='1492'> +4.1010060E-01 </wgt>
<wgt id='1493'> +4.1038225E-01 </wgt>
<wgt id='1494'> +3.9366544E-01 </wgt>
<wgt id='1495'> +3.9141435E-01 </wgt>
<wgt id='1496'> +3.9224020E-01 </wgt>
<wgt id='1497'> +3.9302387E-01 </wgt>
<wgt id='1498'> +3.9397219E-01 </wgt>
<wgt id='1499'> +3.9357591E-01 </wgt>
<wgt id='1500'> +3.9552867E-01 </wgt>
<wgt id='1501'> +3.9509326E-01 </wgt>
<wgt id='1502'> +3.9470648E-01 </wgt>
<wgt id='1503'> +3.9431095E-01 </wgt>
<wgt id='1504'> +3.9394521E-01 </wgt>
<wgt id='1505'> +3.9326981E-01 </wgt>
<wgt id='1506'> +3.9298871E-01 </wgt>
<wgt id='1507'> +3.9273951E-01 </wgt>
<wgt id='1508'> +3.9357591E-01 </wgt>
<wgt id='1509'> +3.9352542E-01 </wgt>
<wgt id='1510'> +3.9354687E-01 </wgt>
<wgt id='1511'> +3.9361035E-01 </wgt>
<wgt id='1512'> +3.9358060E-01 </wgt>
<wgt id='1513'> +3.9176679E-01 </wgt>
<wgt id='1514'> +3.9162076E-01 </wgt>
<wgt id='1515'> +3.9196093E-01 </wgt>
<wgt id='1516'> +3.9247957E-01 </wgt>
<wgt id='1517'> +3.9106603E-01 </wgt>
<wgt id='1518'> +3.9235886E-01 </wgt>
<wgt id='1519'> +3.9153423E-01 </wgt>
<wgt id='1520'> +3.9411603E-01 </wgt>
<wgt id='1521'> +3.8942509E-01 </wgt>
<wgt id='1522'> +3.9108154E-01 </wgt>
<wgt id='1523'> +3.9243157E-01 </wgt>
<wgt id='1524'> +3.9315950E-01 </wgt>
<wgt id='1525'> +3.9116167E-01 </wgt>
<wgt id='1526'> +3.9194759E-01 </wgt>
<wgt id='1527'> +3.9155818E-01 </wgt>
<wgt id='1528'> +3.9074125E-01 </wgt>
<wgt id='1529'> +3.9288590E-01 </wgt>
<wgt id='1530'> +3.9389713E-01 </wgt>
<wgt id='1531'> +3.9055150E-01 </wgt>
<wgt id='1532'> +3.9213108E-01 </wgt>
<wgt id='1533'> +3.9125866E-01 </wgt>
<wgt id='1534'> +3.9031671E-01 </wgt>
<wgt id='1535'> +3.9279281E-01 </wgt>
<wgt id='1536'> +3.9065021E-01 </wgt>
<wgt id='1537'> +3.9283203E-01 </wgt>
<wgt id='1538'> +3.9164864E-01 </wgt>
<wgt id='1539'> +3.9186980E-01 </wgt>
<wgt id='1540'> +3.9216097E-01 </wgt>
<wgt id='1541'> +3.9156285E-01 </wgt>
<wgt id='1542'> +3.8999441E-01 </wgt>
<wgt id='1543'> +3.9670665E-01 </wgt>
<wgt id='1544'> +3.9204350E-01 </wgt>
<wgt id='1545'> +3.9056351E-01 </wgt>
<wgt id='1546'> +3.9083084E-01 </wgt>
<wgt id='1547'> +3.9288687E-01 </wgt>
<wgt id='1548'> +3.9303958E-01 </wgt>
<wgt id='1549'> +3.9055936E-01 </wgt>
<wgt id='1550'> +3.9186632E-01 </wgt>
<wgt id='1551'> +3.9161981E-01 </wgt>
<wgt id='1552'> +3.9180960E-01 </wgt>
<wgt id='1553'> +3.9160261E-01 </wgt>
<wgt id='1554'> +3.9193358E-01 </wgt>
<wgt id='1555'> +3.9046197E-01 </wgt>
<wgt id='1556'> +3.9216999E-01 </wgt>
<wgt id='1557'> +3.9227366E-01 </wgt>
<wgt id='1558'> +3.9007342E-01 </wgt>
<wgt id='1559'> +3.9211682E-01 </wgt>
<wgt id='1560'> +3.9252529E-01 </wgt>
<wgt id='1561'> +3.9131795E-01 </wgt>
<wgt id='1562'> +3.9056961E-01 </wgt>
<wgt id='1563'> +3.9197396E-01 </wgt>
<wgt id='1564'> +3.9176679E-01 </wgt>
<wgt id='1565'> +3.9124104E-01 </wgt>
<wgt id='1566'> +3.9114813E-01 </wgt>
<wgt id='1567'> +3.9138335E-01 </wgt>
<wgt id='1568'> +3.9316698E-01 </wgt>
<wgt id='1569'> +3.9274516E-01 </wgt>
<wgt id='1570'> +3.9235759E-01 </wgt>
<wgt id='1571'> +3.9203398E-01 </wgt>
<wgt id='1572'> +3.9163520E-01 </wgt>
<wgt id='1573'> +3.9120216E-01 </wgt>
<wgt id='1574'> +3.9079369E-01 </wgt>
<wgt id='1575'> +3.9057019E-01 </wgt>
<wgt id='1576'> +3.9138335E-01 </wgt>
<wgt id='1577'> +3.9131284E-01 </wgt>
<wgt id='1578'> +3.9135829E-01 </wgt>
<wgt id='1579'> +3.9139069E-01 </wgt>
<wgt id='1580'> +3.9140394E-01 </wgt>
<wgt id='1581'> +3.9374363E-01 </wgt>
<wgt id='1582'> +3.9386349E-01 </wgt>
<wgt id='1583'> +3.9454469E-01 </wgt>
<wgt id='1584'> +3.9164617E-01 </wgt>
<wgt id='1585'> +3.9477844E-01 </wgt>
<wgt id='1586'> +3.9236120E-01 </wgt>
<wgt id='1587'> +3.8887192E-01 </wgt>
<wgt id='1588'> +3.9569855E-01 </wgt>
<wgt id='1589'> +3.9358839E-01 </wgt>
<wgt id='1590'> +3.9348147E-01 </wgt>
<wgt id='1591'> +3.9286583E-01 </wgt>
<wgt id='1592'> +3.9771346E-01 </wgt>
<wgt id='1593'> +3.9425104E-01 </wgt>
<wgt id='1594'> +3.9372988E-01 </wgt>
<wgt id='1595'> +3.9359768E-01 </wgt>
<wgt id='1596'> +3.9500303E-01 </wgt>
<wgt id='1597'> +3.9440073E-01 </wgt>
<wgt id='1598'> +3.9409380E-01 </wgt>
<wgt id='1599'> +3.9403260E-01 </wgt>
<wgt id='1600'> +3.9430567E-01 </wgt>
<wgt id='1601'> +3.9336789E-01 </wgt>
<wgt id='1602'> +3.9444106E-01 </wgt>
<wgt id='1603'> +3.9420651E-01 </wgt>
<wgt id='1604'> +3.9411193E-01 </wgt>
<wgt id='1605'> +3.9344152E-01 </wgt>
<wgt id='1606'> +3.9390325E-01 </wgt>
<wgt id='1607'> +3.9416512E-01 </wgt>
<wgt id='1608'> +3.9418424E-01 </wgt>
<wgt id='1609'> +3.9421956E-01 </wgt>
<wgt id='1610'> +3.9371602E-01 </wgt>
<wgt id='1611'> +3.9506275E-01 </wgt>
<wgt id='1612'> +3.9318543E-01 </wgt>
<wgt id='1613'> +3.9292401E-01 </wgt>
<wgt id='1614'> +3.9446772E-01 </wgt>
<wgt id='1615'> +3.9449209E-01 </wgt>
<wgt id='1616'> +3.9267780E-01 </wgt>
<wgt id='1617'> +3.9251765E-01 </wgt>
<wgt id='1618'> +3.9346832E-01 </wgt>
<wgt id='1619'> +3.9158706E-01 </wgt>
<wgt id='1620'> +3.9256420E-01 </wgt>
<wgt id='1621'> +3.9308837E-01 </wgt>
<wgt id='1622'> +3.9418665E-01 </wgt>
<wgt id='1623'> +3.9385038E-01 </wgt>
<wgt id='1624'> +3.9340448E-01 </wgt>
<wgt id='1625'> +3.9530151E-01 </wgt>
<wgt id='1626'> +3.9535037E-01 </wgt>
<wgt id='1627'> +3.9309179E-01 </wgt>
<wgt id='1628'> +3.9264711E-01 </wgt>
<wgt id='1629'> +3.9375563E-01 </wgt>
<wgt id='1630'> +3.9437988E-01 </wgt>
<wgt id='1631'> +3.9325196E-01 </wgt>
<wgt id='1632'> +3.9398275E-01 </wgt>
<wgt id='1633'> +3.9248700E-01 </wgt>
<wgt id='1634'> +3.9411004E-01 </wgt>
<wgt id='1635'> +3.9229339E-01 </wgt>
<wgt id='1636'> +3.9354575E-01 </wgt>
<wgt id='1637'> +3.9363675E-01 </wgt>
<wgt id='1638'> +3.9250109E-01 </wgt>
<wgt id='1639'> +3.9443571E-01 </wgt>
<wgt id='1640'> +3.9403785E-01 </wgt>
<wgt id='1641'> +3.8939819E-01 </wgt>
<wgt id='1642'> +3.9231511E-01 </wgt>
<wgt id='1643'> +3.9283298E-01 </wgt>
<wgt id='1644'> +3.9252305E-01 </wgt>
<wgt id='1645'> +3.9273402E-01 </wgt>
<wgt id='1646'> +3.9369818E-01 </wgt>
<wgt id='1647'> +3.9271172E-01 </wgt>
<wgt id='1648'> +3.9250042E-01 </wgt>
<wgt id='1649'> +3.9351834E-01 </wgt>
<wgt id='1650'> +3.9290807E-01 </wgt>
<wgt id='1651'> +3.9308394E-01 </wgt>
<wgt id='1652'> +3.9280072E-01 </wgt>
<wgt id='1653'> +3.9262705E-01 </wgt>
<wgt id='1654'> +3.9328080E-01 </wgt>
<wgt id='1655'> +3.9392572E-01 </wgt>
<wgt id='1656'> +3.9291964E-01 </wgt>
<wgt id='1657'> +3.9322711E-01 </wgt>
<wgt id='1658'> +3.9336654E-01 </wgt>
<wgt id='1659'> +3.9345984E-01 </wgt>
<wgt id='1660'> +3.9400314E-01 </wgt>
<wgt id='1661'> +3.9361551E-01 </wgt>
<wgt id='1662'> +3.9413171E-01 </wgt>
<wgt id='1663'> +3.9442455E-01 </wgt>
<wgt id='1664'> +3.9360533E-01 </wgt>
<wgt id='1665'> +3.9371101E-01 </wgt>
<wgt id='1666'> +3.9387308E-01 </wgt>
<wgt id='1667'> +3.9347942E-01 </wgt>
<wgt id='1668'> +3.9251369E-01 </wgt>
<wgt id='1669'> +3.9292647E-01 </wgt>
<wgt id='1670'> +3.9318099E-01 </wgt>
<wgt id='1671'> +3.9353394E-01 </wgt>
<wgt id='1672'> +3.9271454E-01 </wgt>
<wgt id='1673'> +3.9334234E-01 </wgt>
<wgt id='1674'> +3.9312753E-01 </wgt>
<wgt id='1675'> +3.9335451E-01 </wgt>
<wgt id='1676'> +3.9243689E-01 </wgt>
<wgt id='1677'> +3.9340557E-01 </wgt>
<wgt id='1678'> +3.9341923E-01 </wgt>
<wgt id='1679'> +3.9396350E-01 </wgt>
<wgt id='1680'> +3.9360216E-01 </wgt>
<wgt id='1681'> +3.9334983E-01 </wgt>
<wgt id='1682'> +3.9305788E-01 </wgt>
<wgt id='1683'> +3.9281961E-01 </wgt>
<wgt id='1684'> +3.9286423E-01 </wgt>
<wgt id='1685'> +3.9218083E-01 </wgt>
<wgt id='1686'> +3.9332884E-01 </wgt>
<wgt id='1687'> +3.9362388E-01 </wgt>
<wgt id='1688'> +3.9332019E-01 </wgt>
<wgt id='1689'> +3.9359709E-01 </wgt>
<wgt id='1690'> +3.9286140E-01 </wgt>
<wgt id='1691'> +3.9377833E-01 </wgt>
<wgt id='1692'> +3.9299301E-01 </wgt>
<wgt id='1693'> +3.9349474E-01 </wgt>
<wgt id='1694'> +3.9360633E-01 </wgt>
<wgt id='1695'> +3.9295583E-01 </wgt>
<wgt id='1696'> +3.9336352E-01 </wgt>
<wgt id='1697'> +3.9317557E-01 </wgt>
<wgt id='1698'> +3.9336388E-01 </wgt>
<wgt id='1699'> +3.9308434E-01 </wgt>
<wgt id='1700'> +3.9378530E-01 </wgt>
<wgt id='1701'> +3.9292539E-01 </wgt>
<wgt id='1702'> +3.9329828E-01 </wgt>
<wgt id='1703'> +3.9331990E-01 </wgt>
<wgt id='1704'> +3.9333158E-01 </wgt>
<wgt id='1705'> +3.9344748E-01 </wgt>
<wgt id='1706'> +3.9315941E-01 </wgt>
<wgt id='1707'> +3.9345247E-01 </wgt>
<wgt id='1708'> +3.9291369E-01 </wgt>
<wgt id='1709'> +3.9309374E-01 </wgt>
<wgt id='1710'> +3.9320267E-01 </wgt>
<wgt id='1711'> +3.9330977E-01 </wgt>
<wgt id='1712'> +3.9293169E-01 </wgt>
<wgt id='1713'> +3.8902374E-01 </wgt>
<wgt id='1714'> +3.9624874E-01 </wgt>
<wgt id='1715'> +3.9256503E-01 </wgt>
<wgt id='1716'> +3.9049162E-01 </wgt>
<wgt id='1717'> +3.9048405E-01 </wgt>
<wgt id='1718'> +3.8154442E-01 </wgt>
<wgt id='1719'> +3.8967434E-01 </wgt>
<wgt id='1720'> +4.0129944E-01 </wgt>
<wgt id='1721'> +3.7283548E-01 </wgt>
<wgt id='1722'> +3.8601555E-01 </wgt>
<wgt id='1723'> +3.9185439E-01 </wgt>
<wgt id='1724'> +3.9422850E-01 </wgt>
<wgt id='1725'> +3.9815555E-01 </wgt>
<wgt id='1726'> +4.0063222E-01 </wgt>
<wgt id='1727'> +3.8913257E-01 </wgt>
<wgt id='1728'> +3.9395382E-01 </wgt>
<wgt id='1729'> +3.9365119E-01 </wgt>
<wgt id='1730'> +3.8305665E-01 </wgt>
<wgt id='1731'> +3.7126771E-01 </wgt>
<wgt id='1732'> +4.0227367E-01 </wgt>
<wgt id='1733'> +4.0007339E-01 </wgt>
<wgt id='1734'> +3.9040023E-01 </wgt>
<wgt id='1735'> +3.8727599E-01 </wgt>
<wgt id='1736'> +3.8898185E-01 </wgt>
<wgt id='1737'> +3.9493651E-01 </wgt>
<wgt id='1738'> +4.0091233E-01 </wgt>
<wgt id='1739'> +3.8302986E-01 </wgt>
<wgt id='1740'> +3.8564592E-01 </wgt>
<wgt id='1741'> +3.9583247E-01 </wgt>
<wgt id='1742'> +4.0631430E-01 </wgt>
<wgt id='1743'> +3.8472673E-01 </wgt>
<wgt id='1744'> +3.9829022E-01 </wgt>
<wgt id='1745'> +3.8227958E-01 </wgt>
<wgt id='1746'> +3.9271292E-01 </wgt>
<wgt id='1747'> +3.9230528E-01 </wgt>
<wgt id='1748'> +3.9525862E-01 </wgt>
<wgt id='1749'> +4.0706220E-01 </wgt>
<wgt id='1750'> +3.9621312E-01 </wgt>
<wgt id='1751'> +3.9124550E-01 </wgt>
<wgt id='1752'> +3.7028067E-01 </wgt>
<wgt id='1753'> +3.9395511E-01 </wgt>
<wgt id='1754'> +3.9497152E-01 </wgt>
<wgt id='1755'> +3.9290292E-01 </wgt>
<wgt id='1756'> +3.8673594E-01 </wgt>
<wgt id='1757'> +3.8383966E-01 </wgt>
<wgt id='1758'> +3.8161109E-01 </wgt>
<wgt id='1759'> +3.8972928E-01 </wgt>
<wgt id='1760'> +3.8512365E-01 </wgt>
<wgt id='1761'> +3.9295885E-01 </wgt>
<wgt id='1762'> +3.8913257E-01 </wgt>
<wgt id='1763'> +3.8635647E-01 </wgt>
<wgt id='1764'> +3.9556632E-01 </wgt>
<wgt id='1765'> +3.9781980E-01 </wgt>
<wgt id='1766'> +4.1125071E-01 </wgt>
<wgt id='1767'> +3.9701189E-01 </wgt>
<wgt id='1768'> +3.7576320E-01 </wgt>
<wgt id='1769'> +3.9467328E-01 </wgt>
<wgt id='1770'> +4.0017831E-01 </wgt>
<wgt id='1771'> +3.9390328E-01 </wgt>
<wgt id='1772'> +3.9686936E-01 </wgt>
<wgt id='1773'> +3.9640694E-01 </wgt>
<wgt id='1774'> +3.8841917E-01 </wgt>
<wgt id='1775'> +3.9431908E-01 </wgt>
<wgt id='1776'> +3.9957620E-01 </wgt>
<wgt id='1777'> +3.9150596E-01 </wgt>
<wgt id='1778'> +4.0131102E-01 </wgt>
<wgt id='1779'> +3.9114673E-01 </wgt>
<wgt id='1780'> +4.0172707E-01 </wgt>
<wgt id='1781'> +3.9531759E-01 </wgt>
<wgt id='1782'> +4.0584124E-01 </wgt>
<wgt id='1783'> +3.9020406E-01 </wgt>
<wgt id='1784'> +4.0280137E-01 </wgt>
<wgt id='1785'> +4.0230735E-01 </wgt>
<wgt id='1786'> +3.9779762E-01 </wgt>
<wgt id='1787'> +3.9486993E-01 </wgt>
<wgt id='1788'> +3.8645059E-01 </wgt>
<wgt id='1789'> +3.9969334E-01 </wgt>
<wgt id='1790'> +3.9669408E-01 </wgt>
<wgt id='1791'> +3.8056424E-01 </wgt>
<wgt id='1792'> +3.8968420E-01 </wgt>
<wgt id='1793'> +4.1119450E-01 </wgt>
<wgt id='1794'> +3.9436321E-01 </wgt>
<wgt id='1795'> +3.8306012E-01 </wgt>
<wgt id='1796'> +3.9303102E-01 </wgt>
<wgt id='1797'> +3.7692259E-01 </wgt>
<wgt id='1798'> +3.9323222E-01 </wgt>
<wgt id='1799'> +4.0907379E-01 </wgt>
<wgt id='1800'> +3.9900106E-01 </wgt>
<wgt id='1801'> +3.8310740E-01 </wgt>
<wgt id='1802'> +3.8768040E-01 </wgt>
<wgt id='1803'> +3.9147741E-01 </wgt>
<wgt id='1804'> +3.9831110E-01 </wgt>
<wgt id='1805'> +3.9437377E-01 </wgt>
<wgt id='1806'> +3.9733820E-01 </wgt>
<wgt id='1807'> +3.8306629E-01 </wgt>
<wgt id='1808'> +3.9751721E-01 </wgt>
<wgt id='1809'> +3.9042905E-01 </wgt>
<wgt id='1810'> +3.9274596E-01 </wgt>
<wgt id='1811'> +3.9346924E-01 </wgt>
<wgt id='1812'> +3.9023657E-01 </wgt>
<wgt id='1813'> +3.9347018E-01 </wgt>
<wgt id='1814'> +3.8471416E-01 </wgt>
<wgt id='1815'> +3.9784204E-01 </wgt>
<wgt id='1816'> +3.9697562E-01 </wgt>
<wgt id='1817'> +3.9895270E-01 </wgt>
<wgt id='1818'> +3.9159279E-01 </wgt>
<wgt id='1819'> +3.9783143E-01 </wgt>
<wgt id='1820'> +4.0773917E-01 </wgt>
<wgt id='1821'> +4.0082109E-01 </wgt>
<wgt id='1822'> +3.9557679E-01 </wgt>
<wgt id='1823'> +4.0003551E-01 </wgt>
<wgt id='1824'> +3.8787040E-01 </wgt>
<wgt id='1825'> +3.9389739E-01 </wgt>
<wgt id='1826'> +3.9457533E-01 </wgt>
<wgt id='1827'> +3.9428427E-01 </wgt>
<wgt id='1828'> +4.0152831E-01 </wgt>
<wgt id='1829'> +3.9749993E-01 </wgt>
<wgt id='1830'> +3.8740789E-01 </wgt>
<wgt id='1831'> +3.9133356E-01 </wgt>
<wgt id='1832'> +3.9803515E-01 </wgt>
<wgt id='1833'> +3.8701156E-01 </wgt>
<wgt id='1834'> +3.9049466E-01 </wgt>
<wgt id='1835'> +3.9983600E-01 </wgt>
<wgt id='1836'> +4.0075231E-01 </wgt>
<wgt id='1837'> +3.9859096E-01 </wgt>
<wgt id='1838'> +3.9164749E-01 </wgt>
<wgt id='1839'> +4.1767328E-01 </wgt>
<wgt id='1840'> +3.9855835E-01 </wgt>
<wgt id='1841'> +3.9790993E-01 </wgt>
<wgt id='1842'> +3.9531490E-01 </wgt>
<wgt id='1843'> +3.8842223E-01 </wgt>
<wgt id='1844'> +3.9462801E-01 </wgt>
<wgt id='1845'> +3.9075060E-01 </wgt>
<wgt id='1846'> +3.9817654E-01 </wgt>
<wgt id='1847'> +3.9696577E-01 </wgt>
<wgt id='1848'> +3.9455191E-01 </wgt>
<wgt id='1849'> +4.0556054E-01 </wgt>
<wgt id='1850'> +4.0478808E-01 </wgt>
<wgt id='1851'> +3.9824025E-01 </wgt>
<wgt id='1852'> +4.0259963E-01 </wgt>
<wgt id='1853'> +3.8643664E-01 </wgt>
<wgt id='1854'> +3.9248102E-01 </wgt>
<wgt id='1855'> +3.9681930E-01 </wgt>
<wgt id='1856'> +4.0253590E-01 </wgt>
<wgt id='1857'> +4.0355464E-01 </wgt>
<wgt id='1858'> +3.9808307E-01 </wgt>
<wgt id='1859'> +3.9891904E-01 </wgt>
<wgt id='1860'> +3.9713004E-01 </wgt>
<wgt id='1861'> +3.9882037E-01 </wgt>
<wgt id='1862'> +4.0165583E-01 </wgt>
<wgt id='1863'> +3.8751583E-01 </wgt>
<wgt id='1864'> +3.9312228E-01 </wgt>
<wgt id='1865'> +4.0009408E-01 </wgt>
<wgt id='1866'> +3.9869895E-01 </wgt>
<wgt id='1867'> +3.9726693E-01 </wgt>
<wgt id='1868'> +3.9340392E-01 </wgt>
<wgt id='1869'> +4.0814646E-01 </wgt>
<wgt id='1870'> +3.9835052E-01 </wgt>
<wgt id='1871'> +4.0049869E-01 </wgt>
<wgt id='1872'> +3.8566973E-01 </wgt>
<wgt id='1873'> +4.0796388E-01 </wgt>
<wgt id='1874'> +3.9595387E-01 </wgt>
<wgt id='1875'> +3.8858218E-01 </wgt>
<wgt id='1876'> +3.9481057E-01 </wgt>
<wgt id='1877'> +3.9927219E-01 </wgt>
<wgt id='1878'> +3.9149821E-01 </wgt>
<wgt id='1879'> +4.0930302E-01 </wgt>
<wgt id='1880'> +3.8304739E-01 </wgt>
<wgt id='1881'> +4.0475778E-01 </wgt>
<wgt id='1882'> +3.9381589E-01 </wgt>
<wgt id='1883'> +4.1054747E-01 </wgt>
<wgt id='1884'> +3.9556622E-01 </wgt>
<wgt id='1885'> +3.9159566E-01 </wgt>
<wgt id='1886'> +3.9331859E-01 </wgt>
<wgt id='1887'> +4.0306495E-01 </wgt>
<wgt id='1888'> +3.9529118E-01 </wgt>
<wgt id='1889'> +3.9053102E-01 </wgt>
<wgt id='1890'> +4.0469600E-01 </wgt>
<wgt id='1891'> +3.9405228E-01 </wgt>
<wgt id='1892'> +3.9716231E-01 </wgt>
<wgt id='1893'> +4.0199056E-01 </wgt>
<wgt id='1894'> +4.0684503E-01 </wgt>
<wgt id='1895'> +4.0351343E-01 </wgt>
<wgt id='1896'> +3.9488018E-01 </wgt>
<wgt id='1897'> +3.9942805E-01 </wgt>
<wgt id='1898'> +4.0104782E-01 </wgt>
<wgt id='1899'> +3.9307364E-01 </wgt>
<wgt id='1900'> +4.0131603E-01 </wgt>
<wgt id='1901'> +3.8177461E-01 </wgt>
<wgt id='1902'> +3.8844111E-01 </wgt>
<wgt id='1903'> +3.9352300E-01 </wgt>
<wgt id='1904'> +3.9908847E-01 </wgt>
<wgt id='1905'> +3.9459511E-01 </wgt>
<wgt id='1906'> +3.9054309E-01 </wgt>
<wgt id='1907'> +3.9462786E-01 </wgt>
<wgt id='1908'> +4.0489846E-01 </wgt>
<wgt id='1909'> +3.9380116E-01 </wgt>
<wgt id='1910'> +4.0614327E-01 </wgt>
<wgt id='1911'> +3.8033664E-01 </wgt>
<wgt id='1912'> +3.9845760E-01 </wgt>
<wgt id='1913'> +4.0219729E-01 </wgt>
<wgt id='1914'> +4.0861759E-01 </wgt>
<wgt id='1915'> +4.0331917E-01 </wgt>
<wgt id='1916'> +3.7910245E-01 </wgt>
<wgt id='1917'> +4.2596814E-01 </wgt>
<wgt id='1918'> +4.5461721E-01 </wgt>
<wgt id='1919'> +3.9697562E-01 </wgt>
<wgt id='1920'> +3.9895270E-01 </wgt>
<wgt id='1921'> +3.9159279E-01 </wgt>
<wgt id='1922'> +3.9783143E-01 </wgt>
<wgt id='1923'> +4.0773917E-01 </wgt>
<wgt id='1924'> +4.0082109E-01 </wgt>
<wgt id='1925'> +3.9557679E-01 </wgt>
<wgt id='1926'> +4.0003551E-01 </wgt>
<wgt id='1927'> +3.8787040E-01 </wgt>
<wgt id='1928'> +3.9389739E-01 </wgt>
<wgt id='1929'> +3.9457533E-01 </wgt>
<wgt id='1930'> +3.9428427E-01 </wgt>
<wgt id='1931'> +4.0152831E-01 </wgt>
<wgt id='1932'> +3.9749993E-01 </wgt>
<wgt id='1933'> +3.8740789E-01 </wgt>
<wgt id='1934'> +3.9133356E-01 </wgt>
<wgt id='1935'> +3.9803515E-01 </wgt>
<wgt id='1936'> +3.8701156E-01 </wgt>
<wgt id='1937'> +3.9049466E-01 </wgt>
<wgt id='1938'> +3.9983600E-01 </wgt>
<wgt id='1939'> +4.0075231E-01 </wgt>
<wgt id='1940'> +3.9859096E-01 </wgt>
<wgt id='1941'> +3.9164749E-01 </wgt>
<wgt id='1942'> +4.1767328E-01 </wgt>
<wgt id='1943'> +3.9855835E-01 </wgt>
<wgt id='1944'> +3.9790993E-01 </wgt>
<wgt id='1945'> +3.9531490E-01 </wgt>
<wgt id='1946'> +3.8842223E-01 </wgt>
<wgt id='1947'> +3.9462801E-01 </wgt>
<wgt id='1948'> +3.9075060E-01 </wgt>
<wgt id='1949'> +3.9817654E-01 </wgt>
<wgt id='1950'> +3.9696577E-01 </wgt>
<wgt id='1951'> +3.9455191E-01 </wgt>
<wgt id='1952'> +4.0556054E-01 </wgt>
<wgt id='1953'> +4.0478808E-01 </wgt>
<wgt id='1954'> +3.9824025E-01 </wgt>
<wgt id='1955'> +4.0259963E-01 </wgt>
<wgt id='1956'> +3.8643664E-01 </wgt>
<wgt id='1957'> +3.9248102E-01 </wgt>
<wgt id='1958'> +3.9681930E-01 </wgt>
<wgt id='1959'> +4.0253590E-01 </wgt>
<wgt id='1960'> +4.0355464E-01 </wgt>
<wgt id='1961'> +3.9808307E-01 </wgt>
<wgt id='1962'> +3.9891904E-01 </wgt>
<wgt id='1963'> +3.9713004E-01 </wgt>
<wgt id='1964'> +3.9882037E-01 </wgt>
<wgt id='1965'> +4.0165583E-01 </wgt>
<wgt id='1966'> +3.8751583E-01 </wgt>
<wgt id='1967'> +3.9312228E-01 </wgt>
<wgt id='1968'> +4.0009408E-01 </wgt>
<wgt id='1969'> +3.9869895E-01 </wgt>
<wgt id='1970'> +3.9726693E-01 </wgt>
<wgt id='1971'> +3.9340392E-01 </wgt>
<wgt id='1972'> +4.0814646E-01 </wgt>
<wgt id='1973'> +3.9835052E-01 </wgt>
<wgt id='1974'> +4.0049869E-01 </wgt>
<wgt id='1975'> +3.8566973E-01 </wgt>
<wgt id='1976'> +4.0796388E-01 </wgt>
<wgt id='1977'> +3.9595387E-01 </wgt>
<wgt id='1978'> +3.8858218E-01 </wgt>
<wgt id='1979'> +3.9481057E-01 </wgt>
<wgt id='1980'> +3.9927219E-01 </wgt>
<wgt id='1981'> +3.9149821E-01 </wgt>
<wgt id='1982'> +4.0930302E-01 </wgt>
<wgt id='1983'> +3.8304739E-01 </wgt>
<wgt id='1984'> +4.0475778E-01 </wgt>
<wgt id='1985'> +3.9381589E-01 </wgt>
<wgt id='1986'> +4.1054747E-01 </wgt>
<wgt id='1987'> +3.9556622E-01 </wgt>
<wgt id='1988'> +3.9159566E-01 </wgt>
<wgt id='1989'> +3.9331859E-01 </wgt>
<wgt id='1990'> +4.0306495E-01 </wgt>
<wgt id='1991'> +3.9529118E-01 </wgt>
<wgt id='1992'> +3.9053102E-01 </wgt>
<wgt id='1993'> +4.0469600E-01 </wgt>
<wgt id='1994'> +3.9405228E-01 </wgt>
<wgt id='1995'> +3.9716231E-01 </wgt>
<wgt id='1996'> +4.0199056E-01 </wgt>
<wgt id='1997'> +4.0684503E-01 </wgt>
<wgt id='1998'> +4.0351343E-01 </wgt>
<wgt id='1999'> +3.9488018E-01 </wgt>
<wgt id='2000'> +3.9942805E-01 </wgt>
<wgt id='2001'> +4.0104782E-01 </wgt>
<wgt id='2002'> +3.9307364E-01 </wgt>
<wgt id='2003'> +4.0131603E-01 </wgt>
<wgt id='2004'> +3.8177461E-01 </wgt>
<wgt id='2005'> +3.8844111E-01 </wgt>
<wgt id='2006'> +3.9352300E-01 </wgt>
<wgt id='2007'> +3.9908847E-01 </wgt>
<wgt id='2008'> +3.9459511E-01 </wgt>
<wgt id='2009'> +3.9054309E-01 </wgt>
<wgt id='2010'> +3.9462786E-01 </wgt>
<wgt id='2011'> +4.0489846E-01 </wgt>
<wgt id='2012'> +3.9380116E-01 </wgt>
<wgt id='2013'> +4.0614327E-01 </wgt>
<wgt id='2014'> +3.8033664E-01 </wgt>
<wgt id='2015'> +3.9845760E-01 </wgt>
<wgt id='2016'> +4.0219729E-01 </wgt>
<wgt id='2017'> +4.0861759E-01 </wgt>
<wgt id='2018'> +4.0331917E-01 </wgt>
<wgt id='2019'> +3.7910245E-01 </wgt>
<wgt id='2020'> +3.9630010E-01 </wgt>
<wgt id='2021'> +3.9713294E-01 </wgt>
<wgt id='2022'> +3.9715767E-01 </wgt>
</rwgt>
</event>
<event>
13      2 +3.9556008E-01 6.06273600e+02 7.81860800e-03 1.11019500e-01
        3 -1    0    0  501    0 +0.0000000000e+00 +0.0000000000e+00 +4.4948083648e+02 4.4948084783e+02 1.0100000000e-01 0.0000e+00 -1.0000e+00
       21 -1    0    0  502  503 +0.0000000000e+00 +0.0000000000e+00 -2.1184998472e+03 2.1184998472e+03 0.0000000000e+00 0.0000e+00 1.0000e+00
 -8000001  2    1    2    0  503 -6.5706224182e+01 +3.1965560737e+01 -1.8132393904e+03 1.9113283376e+03 5.9999985182e+02 0.0000e+00 0.0000e+00
        4  1    1    2  501    0 -1.6054021998e+01 +3.7343520227e+00 +3.9246966507e+02 3.9281767769e+02 1.2700000000e+00 0.0000e+00 -1.0000e+00
        5  1    1    2  502    0 +8.1760246180e+01 -3.5699912760e+01 -2.4824928541e+02 2.6383467974e+02 4.6700000000e+00 0.0000e+00 -1.0000e+00
       -6  2    3    3    0  503 -2.7654715299e+02 +5.2680991750e+01 -1.3920437148e+03 1.4315926861e+03 1.8005082721e+02 0.0000e+00 0.0000e+00
       -5  1    6    6    0  503 -2.3592893656e+02 +5.3663363231e+01 -9.4269510151e+02 9.7326156965e+02 4.6700000000e+00 0.0000e+00 1.0000e+00
      -24  2    6    6    0    0 -4.0618216436e+01 -9.8237148079e-01 -4.4934861326e+02 4.5833111645e+02 8.0637655673e+01 0.0000e+00 0.0000e+00
      -14  1    8    8    0    0 -2.2639813146e+01 -3.6423560190e+01 -3.2419990353e+02 3.2702418003e+02 0.0000000000e+00 0.0000e+00 1.0000e+00
       13  1    8    8    0    0 -1.7978403290e+01 +3.5441188709e+01 -1.2514870973e+02 1.3130693643e+02 1.0566000000e-01 0.0000e+00 -1.0000e+00
       23  2    3    3    0    0 +2.1084092881e+02 -2.0715431013e+01 -4.2119567561e+02 4.7973565150e+02 8.8642381615e+01 0.0000e+00 0.0000e+00
        1  1   11   11  504    0 +1.2755117289e+02 -5.3707565453e+01 -2.2682147749e+02 2.6570996776e+02 5.0400000000e-03 0.0000e+00 -1.0000e+00
       -1  1   11   11    0  504 +8.3289755919e+01 +3.2992134440e+01 -1.9437419813e+02 2.1402568374e+02 5.0400000000e-03 0.0000e+00 1.0000e+00
<mgrwt>
<rscale>  1 0.10011294e+03</rscale>
<asrwt>0</asrwt>
<pdfrwt beam="1">  1       21 0.32592305e+00 0.60627359e+03</pdfrwt>
<pdfrwt beam="2">  1        3 0.69150899e-01 0.16531482e+02</pdfrwt>
<totfact> 0.20242885e+00</totfact>
</mgrwt>
<rwgt>
<wgt id='1001'> +3.9556008E-01 </wgt>
<wgt id='1002'> +3.0786413E-01 </wgt>
<wgt id='1003'> +3.0783713E-01 </wgt>
<wgt id='1004'> +3.7896780E-01 </wgt>
<wgt id='1005'> +2.2870888E-01 </wgt>
<wgt id='1006'> +3.5709006E-01 </wgt>
<wgt id='1007'> +2.8442506E-01 </wgt>
<wgt id='1008'> +2.8440092E-01 </wgt>
<wgt id='1009'> +3.4762031E-01 </wgt>
<wgt id='1010'> +2.1322025E-01 </wgt>
<wgt id='1011'> +4.4366781E-01 </wgt>
<wgt id='1012'> +3.3562767E-01 </wgt>
<wgt id='1013'> +3.3559708E-01 </wgt>
<wgt id='1014'> +4.1671719E-01 </wgt>
<wgt id='1015'> +2.4667991E-01 </wgt>
<wgt id='1016'> +3.6189698E-01 </wgt>
<wgt id='1017'> +2.7464566E-01 </wgt>
<wgt id='1018'> +2.7462253E-01 </wgt>
<wgt id='1019'> +3.3559708E-01 </wgt>
<wgt id='1020'> +2.0622006E-01 </wgt>
<wgt id='1021'> +3.2670085E-01 </wgt>
<wgt id='1022'> +2.5373566E-01 </wgt>
<wgt id='1023'> +2.5371501E-01 </wgt>
<wgt id='1024'> +3.0783713E-01 </wgt>
<wgt id='1025'> +1.9225442E-01 </wgt>
<wgt id='1026'> +4.0591062E-01 </wgt>
<wgt id='1027'> +2.9941353E-01 </wgt>
<wgt id='1028'> +2.9938727E-01 </wgt>
<wgt id='1029'> +3.6902626E-01 </wgt>
<wgt id='1030'> +2.2242400E-01 </wgt>
<wgt id='1031'> +4.2870791E-01 </wgt>
<wgt id='1032'> +3.4765197E-01 </wgt>
<wgt id='1033'> +3.4762031E-01 </wgt>
<wgt id='1034'> +4.3167724E-01 </wgt>
<wgt id='1035'> +2.5529790E-01 </wgt>
<wgt id='1036'> +3.8701411E-01 </wgt>
<wgt id='1037'> +3.2118367E-01 </wgt>
<wgt id='1038'> +3.2115534E-01 </wgt>
<wgt id='1039'> +3.9596972E-01 </wgt>
<wgt id='1040'> +2.3800861E-01 </wgt>
<wgt id='1041'> +4.8084705E-01 </wgt>
<wgt id='1042'> +3.7900362E-01 </wgt>
<wgt id='1043'> +3.7896780E-01 </wgt>
<wgt id='1044'> +4.7467707E-01 </wgt>
<wgt id='1045'> +2.7535819E-01 </wgt>
<wgt id='1046'> +3.9556008E-01 </wgt>
<wgt id='1047'> +3.9556008E-01 </wgt>
<wgt id='1048'> +3.9556008E-01 </wgt>
<wgt id='1049'> +3.9287498E-01 </wgt>
<wgt id='1050'> +3.9619220E-01 </wgt>
<wgt id='1051'> +3.9247783E-01 </wgt>
<wgt id='1052'> +3.9033803E-01 </wgt>
<wgt id='1053'> +3.9427569E-01 </wgt>
<wgt id='1054'> +4.0197850E-01 </wgt>
<wgt id='1055'> +3.9746058E-01 </wgt>
<wgt id='1056'> +4.0107307E-01 </wgt>
<wgt id='1057'> +3.8948868E-01 </wgt>
<wgt id='1058'> +3.9233772E-01 </wgt>
<wgt id='1059'> +3.9259024E-01 </wgt>
<wgt id='1060'> +3.9621933E-01 </wgt>
<wgt id='1061'> +3.9592952E-01 </wgt>
<wgt id='1062'> +3.9340254E-01 </wgt>
<wgt id='1063'> +3.8701745E-01 </wgt>
<wgt id='1064'> +4.0024617E-01 </wgt>
<wgt id='1065'> +3.9367747E-01 </wgt>
<wgt id='1066'> +4.0121656E-01 </wgt>
<wgt id='1067'> +3.9077995E-01 </wgt>
<wgt id='1068'> +4.0692291E-01 </wgt>
<wgt id='1069'> +3.9655553E-01 </wgt>
<wgt id='1070'> +3.9694101E-01 </wgt>
<wgt id='1071'> +3.9880918E-01 </wgt>
<wgt id='1072'> +3.9637784E-01 </wgt>
<wgt id='1073'> +3.9901467E-01 </wgt>
<wgt id='1074'> +3.9771528E-01 </wgt>
<wgt id='1075'> +3.8525520E-01 </wgt>
<wgt id='1076'> +4.0022950E-01 </wgt>
<wgt id='1077'> +3.8350379E-01 </wgt>
<wgt id='1078'> +3.8678145E-01 </wgt>
<wgt id='1079'> +3.8840363E-01 </wgt>
<wgt id='1080'> +3.9918901E-01 </wgt>
<wgt id='1081'> +3.8932104E-01 </wgt>
<wgt id='1082'> +3.9891273E-01 </wgt>
<wgt id='1083'> +4.0034896E-01 </wgt>
<wgt id='1084'> +3.9251508E-01 </wgt>
<wgt id='1085'> +3.9030888E-01 </wgt>
<wgt id='1086'> +4.0077815E-01 </wgt>
<wgt id='1087'> +3.9264143E-01 </wgt>
<wgt id='1088'> +3.9510864E-01 </wgt>
<wgt id='1089'> +3.9347704E-01 </wgt>
<wgt id='1090'> +3.9052656E-01 </wgt>
<wgt id='1091'> +3.9697759E-01 </wgt>
<wgt id='1092'> +4.0112764E-01 </wgt>
<wgt id='1093'> +3.9497283E-01 </wgt>
<wgt id='1094'> +3.8902936E-01 </wgt>
<wgt id='1095'> +4.0183539E-01 </wgt>
<wgt id='1096'> +3.9202537E-01 </wgt>
<wgt id='1097'> +3.9991652E-01 </wgt>
<wgt id='1098'> +3.9473584E-01 </wgt>
<wgt id='1099'> +3.9669922E-01 </wgt>
<wgt id='1100'> +3.9568578E-01 </wgt>
<wgt id='1101'> +3.9045734E-01 </wgt>
<wgt id='1102'> +3.9433511E-01 </wgt>
<wgt id='1103'> +3.9187420E-01 </wgt>
<wgt id='1104'> +3.9733832E-01 </wgt>
<wgt id='1105'> +3.9574179E-01 </wgt>
<wgt id='1106'> +3.9244634E-01 </wgt>
<wgt id='1107'> +3.9948872E-01 </wgt>
<wgt id='1108'> +3.9455239E-01 </wgt>
<wgt id='1109'> +3.9224694E-01 </wgt>
<wgt id='1110'> +3.9857885E-01 </wgt>
<wgt id='1111'> +4.0006046E-01 </wgt>
<wgt id='1112'> +3.9977445E-01 </wgt>
<wgt id='1113'> +3.8819350E-01 </wgt>
<wgt id='1114'> +3.9299501E-01 </wgt>
<wgt id='1115'> +3.9374519E-01 </wgt>
<wgt id='1116'> +3.9932269E-01 </wgt>
<wgt id='1117'> +3.9799228E-01 </wgt>
<wgt id='1118'> +3.9622029E-01 </wgt>
<wgt id='1119'> +3.9484243E-01 </wgt>
<wgt id='1120'> +3.9017977E-01 </wgt>
<wgt id='1121'> +3.9916774E-01 </wgt>
<wgt id='1122'> +3.9168903E-01 </wgt>
<wgt id='1123'> +3.9764028E-01 </wgt>
<wgt id='1124'> +3.9915064E-01 </wgt>
<wgt id='1125'> +3.9825677E-01 </wgt>
<wgt id='1126'> +3.9815667E-01 </wgt>
<wgt id='1127'> +3.9675481E-01 </wgt>
<wgt id='1128'> +3.9505014E-01 </wgt>
<wgt id='1129'> +3.9412267E-01 </wgt>
<wgt id='1130'> +3.9705644E-01 </wgt>
<wgt id='1131'> +3.9742030E-01 </wgt>
<wgt id='1132'> +3.9835447E-01 </wgt>
<wgt id='1133'> +3.9689367E-01 </wgt>
<wgt id='1134'> +3.9495641E-01 </wgt>
<wgt id='1135'> +3.9540660E-01 </wgt>
<wgt id='1136'> +3.9436424E-01 </wgt>
<wgt id='1137'> +3.9428899E-01 </wgt>
<wgt id='1138'> +3.9373553E-01 </wgt>
<wgt id='1139'> +3.9502458E-01 </wgt>
<wgt id='1140'> +3.9590151E-01 </wgt>
<wgt id='1141'> +3.9497775E-01 </wgt>
<wgt id='1142'> +3.9519062E-01 </wgt>
<wgt id='1143'> +3.9660451E-01 </wgt>
<wgt id='1144'> +3.9479147E-01 </wgt>
<wgt id='1145'> +3.9627346E-01 </wgt>
<wgt id='1146'> +3.9630701E-01 </wgt>
<wgt id='1147'> +3.9726637E-01 </wgt>
<wgt id='1148'> +3.9556008E-01 </wgt>
<wgt id='1149'> +3.6472741E-01 </wgt>
<wgt id='1150'> +2.6140225E-01 </wgt>
<wgt id='1151'> +3.6063817E-01 </wgt>
<wgt id='1152'> +2.9825481E-01 </wgt>
<wgt id='1153'> +3.7909080E-01 </wgt>
<wgt id='1154'> +3.2117894E-01 </wgt>
<wgt id='1155'> +4.0857168E-01 </wgt>
<wgt id='1156'> +3.5551334E-01 </wgt>
<wgt id='1157'> +3.5989479E-01 </wgt>
<wgt id='1158'> +3.5877357E-01 </wgt>
<wgt id='1159'> +3.8079536E-01 </wgt>
<wgt id='1160'> +3.1274847E-01 </wgt>
<wgt id='1161'> +4.2195694E-01 </wgt>
<wgt id='1162'> +3.8730104E-01 </wgt>
<wgt id='1163'> +3.2506060E-01 </wgt>
<wgt id='1164'> +3.0926587E-01 </wgt>
<wgt id='1165'> +3.4718343E-01 </wgt>
<wgt id='1166'> +3.2029212E-01 </wgt>
<wgt id='1167'> +3.2944570E-01 </wgt>
<wgt id='1168'> +3.7381632E-01 </wgt>
<wgt id='1169'> +3.9697554E-01 </wgt>
<wgt id='1170'> +3.6713644E-01 </wgt>
<wgt id='1171'> +3.4856109E-01 </wgt>
<wgt id='1172'> +3.4644352E-01 </wgt>
<wgt id='1173'> +3.8269432E-01 </wgt>
<wgt id='1174'> +3.7777628E-01 </wgt>
<wgt id='1175'> +3.3749260E-01 </wgt>
<wgt id='1176'> +4.0241949E-01 </wgt>
<wgt id='1177'> +3.7531026E-01 </wgt>
<wgt id='1178'> +3.7074135E-01 </wgt>
<wgt id='1179'> +3.5566877E-01 </wgt>
<wgt id='1180'> +3.3371076E-01 </wgt>
<wgt id='1181'> +3.3734074E-01 </wgt>
<wgt id='1182'> +3.5072141E-01 </wgt>
<wgt id='1183'> +3.6200195E-01 </wgt>
<wgt id='1184'> +3.2173690E-01 </wgt>
<wgt id='1185'> +3.6304426E-01 </wgt>
<wgt id='1186'> +3.5784329E-01 </wgt>
<wgt id='1187'> +4.1414855E-01 </wgt>
<wgt id='1188'> +3.8372081E-01 </wgt>
<wgt id='1189'> +3.9485723E-01 </wgt>
<wgt id='1190'> +3.8409682E-01 </wgt>
<wgt id='1191'> +3.9868302E-01 </wgt>
<wgt id='1192'> +3.6507751E-01 </wgt>
<wgt id='1193'> +3.8722000E-01 </wgt>
<wgt id='1194'> +3.6361868E-01 </wgt>
<wgt id='1195'> +3.7920096E-01 </wgt>
<wgt id='1196'> +3.6491886E-01 </wgt>
<wgt id='1197'> +2.9470805E-01 </wgt>
<wgt id='1198'> +3.4646209E-01 </wgt>
<wgt id='1199'> +3.9247453E-01 </wgt>
<wgt id='1200'> +3.5377497E-01 </wgt>
<wgt id='1201'> +4.1905089E-01 </wgt>
<wgt id='1202'> +3.4772947E-01 </wgt>
<wgt id='1203'> +3.7954728E-01 </wgt>
<wgt id='1204'> +3.2189749E-01 </wgt>
<wgt id='1205'> +3.8062143E-01 </wgt>
<wgt id='1206'> +3.4803503E-01 </wgt>
<wgt id='1207'> +3.9142781E-01 </wgt>
<wgt id='1208'> +3.8398812E-01 </wgt>
<wgt id='1209'> +3.4065679E-01 </wgt>
<wgt id='1210'> +3.6214023E-01 </wgt>
<wgt id='1211'> +3.7158683E-01 </wgt>
<wgt id='1212'> +3.6827786E-01 </wgt>
<wgt id='1213'> +3.3439518E-01 </wgt>
<wgt id='1214'> +3.6109947E-01 </wgt>
<wgt id='1215'> +3.5803249E-01 </wgt>
<wgt id='1216'> +3.6331250E-01 </wgt>
<wgt id='1217'> +3.9282934E-01 </wgt>
<wgt id='1218'> +3.8437680E-01 </wgt>
<wgt id='1219'> +3.6121175E-01 </wgt>
<wgt id='1220'> +3.5182746E-01 </wgt>
<wgt id='1221'> +3.4140681E-01 </wgt>
<wgt id='1222'> +4.3961044E-01 </wgt>
<wgt id='1223'> +4.1995537E-01 </wgt>
<wgt id='1224'> +3.6136813E-01 </wgt>
<wgt id='1225'> +3.7979139E-01 </wgt>
<wgt id='1226'> +3.7506947E-01 </wgt>
<wgt id='1227'> +3.6150975E-01 </wgt>
<wgt id='1228'> +3.4815424E-01 </wgt>
<wgt id='1229'> +3.4537598E-01 </wgt>
<wgt id='1230'> +3.7632322E-01 </wgt>
<wgt id='1231'> +3.4718343E-01 </wgt>
<wgt id='1232'> +4.5144622E-01 </wgt>
<wgt id='1233'> +3.4173918E-01 </wgt>
<wgt id='1234'> +3.6167878E-01 </wgt>
<wgt id='1235'> +2.8022730E-01 </wgt>
<wgt id='1236'> +3.9322643E-01 </wgt>
<wgt id='1237'> +3.5702046E-01 </wgt>
<wgt id='1238'> +5.3030684E-01 </wgt>
<wgt id='1239'> +4.1381300E-01 </wgt>
<wgt id='1240'> +3.6356338E-01 </wgt>
<wgt id='1241'> +3.8437313E-01 </wgt>
<wgt id='1242'> +3.7245953E-01 </wgt>
<wgt id='1243'> +3.3240863E-01 </wgt>
<wgt id='1244'> +3.3692715E-01 </wgt>
<wgt id='1245'> +3.4211723E-01 </wgt>
<wgt id='1246'> +3.7770321E-01 </wgt>
<wgt id='1247'> +3.7774799E-01 </wgt>
<wgt id='1248'> +3.7328632E-01 </wgt>
<wgt id='1249'> +3.4241428E-01 </wgt>
<wgt id='1250'> +5.3305458E-01 </wgt>
<wgt id='1251'> +5.2109191E-01 </wgt>
<wgt id='1252'> +4.5159748E-01 </wgt>
<wgt id='1253'> +4.1769886E-01 </wgt>
<wgt id='1254'> +4.3911662E-01 </wgt>
<wgt id='1255'> +4.6071983E-01 </wgt>
<wgt id='1256'> +4.6158278E-01 </wgt>
<wgt id='1257'> +4.6022702E-01 </wgt>
<wgt id='1258'> +4.6176632E-01 </wgt>
<wgt id='1259'> +4.6016781E-01 </wgt>
<wgt id='1260'> +4.4429846E-01 </wgt>
<wgt id='1261'> +4.8289190E-01 </wgt>
<wgt id='1262'> +4.6489182E-01 </wgt>
<wgt id='1263'> +4.5804315E-01 </wgt>
<wgt id='1264'> +4.5429961E-01 </wgt>
<wgt id='1265'> +4.6509976E-01 </wgt>
<wgt id='1266'> +4.5305866E-01 </wgt>
<wgt id='1267'> +4.6831360E-01 </wgt>
<wgt id='1268'> +4.6196625E-01 </wgt>
<wgt id='1269'> +4.5936495E-01 </wgt>
<wgt id='1270'> +4.4971788E-01 </wgt>
<wgt id='1271'> +4.7342911E-01 </wgt>
<wgt id='1272'> +4.5365356E-01 </wgt>
<wgt id='1273'> +4.6623826E-01 </wgt>
<wgt id='1274'> +4.6526640E-01 </wgt>
<wgt id='1275'> +4.5528625E-01 </wgt>
<wgt id='1276'> +4.7894891E-01 </wgt>
<wgt id='1277'> +4.4292538E-01 </wgt>
<wgt id='1278'> +4.5959176E-01 </wgt>
<wgt id='1279'> +4.6134261E-01 </wgt>
<wgt id='1280'> +4.6177533E-01 </wgt>
<wgt id='1281'> +4.5827625E-01 </wgt>
<wgt id='1282'> +4.4498379E-01 </wgt>
<wgt id='1283'> +4.7494370E-01 </wgt>
<wgt id='1284'> +4.6630524E-01 </wgt>
<wgt id='1285'> +4.5622314E-01 </wgt>
<wgt id='1286'> +4.6312469E-01 </wgt>
<wgt id='1287'> +4.6051766E-01 </wgt>
<wgt id='1288'> +4.5307796E-01 </wgt>
<wgt id='1289'> +4.6256888E-01 </wgt>
<wgt id='1290'> +4.5960049E-01 </wgt>
<wgt id='1291'> +4.5144705E-01 </wgt>
<wgt id='1292'> +4.6076107E-01 </wgt>
<wgt id='1293'> +4.5895421E-01 </wgt>
<wgt id='1294'> +4.7365763E-01 </wgt>
<wgt id='1295'> +4.4774627E-01 </wgt>
<wgt id='1296'> +4.8116472E-01 </wgt>
<wgt id='1297'> +4.8344317E-01 </wgt>
<wgt id='1298'> +4.7929756E-01 </wgt>
<wgt id='1299'> +4.7421865E-01 </wgt>
<wgt id='1300'> +4.8897444E-01 </wgt>
<wgt id='1301'> +4.8786451E-01 </wgt>
<wgt id='1302'> +4.7121692E-01 </wgt>
<wgt id='1303'> +4.7676072E-01 </wgt>
<wgt id='1304'> +4.8410393E-01 </wgt>
<wgt id='1305'> +4.7668330E-01 </wgt>
<wgt id='1306'> +4.8752616E-01 </wgt>
<wgt id='1307'> +5.0834591E-01 </wgt>
<wgt id='1308'> +4.6436587E-01 </wgt>
<wgt id='1309'> +4.8178864E-01 </wgt>
<wgt id='1310'> +4.8032273E-01 </wgt>
<wgt id='1311'> +4.7974439E-01 </wgt>
<wgt id='1312'> +4.8166343E-01 </wgt>
<wgt id='1313'> +4.7058672E-01 </wgt>
<wgt id='1314'> +4.9480248E-01 </wgt>
<wgt id='1315'> +4.8331243E-01 </wgt>
<wgt id='1316'> +4.7923087E-01 </wgt>
<wgt id='1317'> +4.9849865E-01 </wgt>
<wgt id='1318'> +4.5445575E-01 </wgt>
<wgt id='1319'> +4.6927356E-01 </wgt>
<wgt id='1320'> +4.8905600E-01 </wgt>
<wgt id='1321'> +4.7589840E-01 </wgt>
<wgt id='1322'> +4.8376329E-01 </wgt>
<wgt id='1323'> +4.7737079E-01 </wgt>
<wgt id='1324'> +4.8645684E-01 </wgt>
<wgt id='1325'> +4.7664633E-01 </wgt>
<wgt id='1326'> +4.8819864E-01 </wgt>
<wgt id='1327'> +4.7762662E-01 </wgt>
<wgt id='1328'> +4.8245298E-01 </wgt>
<wgt id='1329'> +4.8292025E-01 </wgt>
<wgt id='1330'> +4.7891286E-01 </wgt>
<wgt id='1331'> +4.8927336E-01 </wgt>
<wgt id='1332'> +4.7680297E-01 </wgt>
<wgt id='1333'> +4.6536404E-01 </wgt>
<wgt id='1334'> +5.0569602E-01 </wgt>
<wgt id='1335'> +4.7853925E-01 </wgt>
<wgt id='1336'> +4.7177791E-01 </wgt>
<wgt id='1337'> +4.8116472E-01 </wgt>
<wgt id='1338'> +4.8307197E-01 </wgt>
<wgt id='1339'> +4.8258200E-01 </wgt>
<wgt id='1340'> +4.8197529E-01 </wgt>
<wgt id='1341'> +4.8139426E-01 </wgt>
<wgt id='1342'> +4.8090766E-01 </wgt>
<wgt id='1343'> +4.8057439E-01 </wgt>
<wgt id='1344'> +4.4132955E-01 </wgt>
<wgt id='1345'> +4.4391917E-01 </wgt>
<wgt id='1346'> +4.3875805E-01 </wgt>
<wgt id='1347'> +4.4282376E-01 </wgt>
<wgt id='1348'> +4.4026123E-01 </wgt>
<wgt id='1349'> +4.4260081E-01 </wgt>
<wgt id='1350'> +4.4026239E-01 </wgt>
<wgt id='1351'> +4.3533007E-01 </wgt>
<wgt id='1352'> +4.5011227E-01 </wgt>
<wgt id='1353'> +4.3030790E-01 </wgt>
<wgt id='1354'> +4.4912688E-01 </wgt>
<wgt id='1355'> +4.3661339E-01 </wgt>
<wgt id='1356'> +4.4498462E-01 </wgt>
<wgt id='1357'> +4.5483793E-01 </wgt>
<wgt id='1358'> +4.3320540E-01 </wgt>
<wgt id='1359'> +4.4096511E-01 </wgt>
<wgt id='1360'> +4.4227665E-01 </wgt>
<wgt id='1361'> +4.2594171E-01 </wgt>
<wgt id='1362'> +4.5574365E-01 </wgt>
<wgt id='1363'> +4.3778465E-01 </wgt>
<wgt id='1364'> +4.4596682E-01 </wgt>
<wgt id='1365'> +4.3826910E-01 </wgt>
<wgt id='1366'> +4.4265755E-01 </wgt>
<wgt id='1367'> +4.3864916E-01 </wgt>
<wgt id='1368'> +4.4266959E-01 </wgt>
<wgt id='1369'> +4.5285503E-01 </wgt>
<wgt id='1370'> +4.3145930E-01 </wgt>
<wgt id='1371'> +4.3969632E-01 </wgt>
<wgt id='1372'> +4.4469790E-01 </wgt>
<wgt id='1373'> +4.2413464E-01 </wgt>
<wgt id='1374'> +4.5497816E-01 </wgt>
<wgt id='1375'> +4.3210763E-01 </wgt>
<wgt id='1376'> +4.4436105E-01 </wgt>
<wgt id='1377'> +4.3643351E-01 </wgt>
<wgt id='1378'> +4.4837496E-01 </wgt>
<wgt id='1379'> +4.3555215E-01 </wgt>
<wgt id='1380'> +4.4761124E-01 </wgt>
<wgt id='1381'> +4.5029725E-01 </wgt>
<wgt id='1382'> +4.3893201E-01 </wgt>
<wgt id='1383'> +4.3315260E-01 </wgt>
<wgt id='1384'> +4.3921256E-01 </wgt>
<wgt id='1385'> +4.4132955E-01 </wgt>
<wgt id='1386'> +4.4228601E-01 </wgt>
<wgt id='1387'> +4.4194261E-01 </wgt>
<wgt id='1388'> +4.4153691E-01 </wgt>
<wgt id='1389'> +4.4112824E-01 </wgt>
<wgt id='1390'> +4.4084222E-01 </wgt>
<wgt id='1391'> +4.4050062E-01 </wgt>
<wgt id='1392'> +5.1363118E-01 </wgt>
<wgt id='1393'> +5.1323045E-01 </wgt>
<wgt id='1394'> +5.1405538E-01 </wgt>
<wgt id='1395'> +5.1223905E-01 </wgt>
<wgt id='1396'> +5.1461229E-01 </wgt>
<wgt id='1397'> +5.1560082E-01 </wgt>
<wgt id='1398'> +5.1172268E-01 </wgt>
<wgt id='1399'> +5.1339733E-01 </wgt>
<wgt id='1400'> +5.1393075E-01 </wgt>
<wgt id='1401'> +5.1501058E-01 </wgt>
<wgt id='1402'> +5.1193282E-01 </wgt>
<wgt id='1403'> +5.0960104E-01 </wgt>
<wgt id='1404'> +5.2170086E-01 </wgt>
<wgt id='1405'> +5.1307754E-01 </wgt>
<wgt id='1406'> +5.1440394E-01 </wgt>
<wgt id='1407'> +5.1207528E-01 </wgt>
<wgt id='1408'> +5.1471734E-01 </wgt>
<wgt id='1409'> +5.2141939E-01 </wgt>
<wgt id='1410'> +5.0493867E-01 </wgt>
<wgt id='1411'> +5.6014505E-01 </wgt>
<wgt id='1412'> +4.7805455E-01 </wgt>
<wgt id='1413'> +5.0740884E-01 </wgt>
<wgt id='1414'> +5.2021014E-01 </wgt>
<wgt id='1415'> +5.0502203E-01 </wgt>
<wgt id='1416'> +5.2200812E-01 </wgt>
<wgt id='1417'> +5.1129967E-01 </wgt>
<wgt id='1418'> +5.1654290E-01 </wgt>
<wgt id='1419'> +5.1640066E-01 </wgt>
<wgt id='1420'> +5.1088780E-01 </wgt>
<wgt id='1421'> +4.9704923E-01 </wgt>
<wgt id='1422'> +5.3415977E-01 </wgt>
<wgt id='1423'> +4.8447228E-01 </wgt>
<wgt id='1424'> +5.3785754E-01 </wgt>
<wgt id='1425'> +5.1308199E-01 </wgt>
<wgt id='1426'> +5.1438754E-01 </wgt>
<wgt id='1427'> +5.1769695E-01 </wgt>
<wgt id='1428'> +5.0527525E-01 </wgt>
<wgt id='1429'> +5.1578060E-01 </wgt>
<wgt id='1430'> +5.1074298E-01 </wgt>
<wgt id='1431'> +5.2499721E-01 </wgt>
<wgt id='1432'> +5.0335118E-01 </wgt>
<wgt id='1433'> +5.4693352E-01 </wgt>
<wgt id='1434'> +4.5846840E-01 </wgt>
<wgt id='1435'> +4.8616992E-01 </wgt>
<wgt id='1436'> +5.1691376E-01 </wgt>
<wgt id='1437'> +5.1958186E-01 </wgt>
<wgt id='1438'> +4.8420641E-01 </wgt>
<wgt id='1439'> +5.0039660E-01 </wgt>
<wgt id='1440'> +5.4096027E-01 </wgt>
<wgt id='1441'> +5.0563173E-01 </wgt>
<wgt id='1442'> +5.1794004E-01 </wgt>
<wgt id='1443'> +4.7125277E-01 </wgt>
<wgt id='1444'> +4.7078736E-01 </wgt>
<wgt id='1445'> +4.7176804E-01 </wgt>
<wgt id='1446'> +4.6973310E-01 </wgt>
<wgt id='1447'> +4.7230619E-01 </wgt>
<wgt id='1448'> +4.7301836E-01 </wgt>
<wgt id='1449'> +4.6965493E-01 </wgt>
<wgt id='1450'> +4.7110689E-01 </wgt>
<wgt id='1451'> +4.7145167E-01 </wgt>
<wgt id='1452'> +4.7306082E-01 </wgt>
<wgt id='1453'> +4.6953226E-01 </wgt>
<wgt id='1454'> +4.6783527E-01 </wgt>
<wgt id='1455'> +4.7870226E-01 </wgt>
<wgt id='1456'> +4.7099140E-01 </wgt>
<wgt id='1457'> +4.7177600E-01 </wgt>
<wgt id='1458'> +4.7045392E-01 </wgt>
<wgt id='1459'> +4.7173670E-01 </wgt>
<wgt id='1460'> +4.9113539E-01 </wgt>
<wgt id='1461'> +4.4807522E-01 </wgt>
<wgt id='1462'> +5.1223112E-01 </wgt>
<wgt id='1463'> +4.3580912E-01 </wgt>
<wgt id='1464'> +4.6667650E-01 </wgt>
<wgt id='1465'> +4.7727265E-01 </wgt>
<wgt id='1466'> +4.6127420E-01 </wgt>
<wgt id='1467'> +4.7769016E-01 </wgt>
<wgt id='1468'> +4.7859037E-01 </wgt>
<wgt id='1469'> +4.6436084E-01 </wgt>
<wgt id='1470'> +4.7324354E-01 </wgt>
<wgt id='1471'> +4.6951845E-01 </wgt>
<wgt id='1472'> +4.6031346E-01 </wgt>
<wgt id='1473'> +4.8495861E-01 </wgt>
<wgt id='1474'> +4.5080958E-01 </wgt>
<wgt id='1475'> +4.9623720E-01 </wgt>
<wgt id='1476'> +4.7482121E-01 </wgt>
<wgt id='1477'> +4.6799146E-01 </wgt>
<wgt id='1478'> +4.7469591E-01 </wgt>
<wgt id='1479'> +4.6343360E-01 </wgt>
<wgt id='1480'> +4.7336524E-01 </wgt>
<wgt id='1481'> +4.6825578E-01 </wgt>
<wgt id='1482'> +4.8304559E-01 </wgt>
<wgt id='1483'> +4.5887747E-01 </wgt>
<wgt id='1484'> +5.0316149E-01 </wgt>
<wgt id='1485'> +4.2108782E-01 </wgt>
<wgt id='1486'> +4.3913490E-01 </wgt>
<wgt id='1487'> +4.7537920E-01 </wgt>
<wgt id='1488'> +4.7812924E-01 </wgt>
<wgt id='1489'> +4.4041444E-01 </wgt>
<wgt id='1490'> +4.5950346E-01 </wgt>
<wgt id='1491'> +4.9480587E-01 </wgt>
<wgt id='1492'> +4.6253917E-01 </wgt>
<wgt id='1493'> +4.7624313E-01 </wgt>
<wgt id='1494'> +4.9080014E-01 </wgt>
<wgt id='1495'> +4.3569555E-01 </wgt>
<wgt id='1496'> +4.5070610E-01 </wgt>
<wgt id='1497'> +4.7065648E-01 </wgt>
<wgt id='1498'> +5.1130444E-01 </wgt>
<wgt id='1499'> +4.9033779E-01 </wgt>
<wgt id='1500'> +5.1291093E-01 </wgt>
<wgt id='1501'> +5.0808287E-01 </wgt>
<wgt id='1502'> +5.0336852E-01 </wgt>
<wgt id='1503'> +4.9924738E-01 </wgt>
<wgt id='1504'> +4.9466360E-01 </wgt>
<wgt id='1505'> +4.8582112E-01 </wgt>
<wgt id='1506'> +4.8109945E-01 </wgt>
<wgt id='1507'> +4.7649196E-01 </wgt>
<wgt id='1508'> +4.9033779E-01 </wgt>
<wgt id='1509'> +4.8688210E-01 </wgt>
<wgt id='1510'> +4.8851240E-01 </wgt>
<wgt id='1511'> +4.9203879E-01 </wgt>
<wgt id='1512'> +4.9351215E-01 </wgt>
<wgt id='1513'> +4.8089219E-01 </wgt>
<wgt id='1514'> +4.7988082E-01 </wgt>
<wgt id='1515'> +4.8221888E-01 </wgt>
<wgt id='1516'> +4.8241451E-01 </wgt>
<wgt id='1517'> +4.7940112E-01 </wgt>
<wgt id='1518'> +4.7840430E-01 </wgt>
<wgt id='1519'> +4.8189737E-01 </wgt>
<wgt id='1520'> +4.8202594E-01 </wgt>
<wgt id='1521'> +4.7976602E-01 </wgt>
<wgt id='1522'> +4.8430051E-01 </wgt>
<wgt id='1523'> +4.7765374E-01 </wgt>
<wgt id='1524'> +4.8905010E-01 </wgt>
<wgt id='1525'> +4.7732150E-01 </wgt>
<wgt id='1526'> +4.8096891E-01 </wgt>
<wgt id='1527'> +4.8079703E-01 </wgt>
<wgt id='1528'> +4.8111309E-01 </wgt>
<wgt id='1529'> +4.8071962E-01 </wgt>
<wgt id='1530'> +5.2553254E-01 </wgt>
<wgt id='1531'> +4.5563358E-01 </wgt>
<wgt id='1532'> +4.5260084E-01 </wgt>
<wgt id='1533'> +5.1889975E-01 </wgt>
<wgt id='1534'> +5.2498933E-01 </wgt>
<wgt id='1535'> +4.5017401E-01 </wgt>
<wgt id='1536'> +4.7585074E-01 </wgt>
<wgt id='1537'> +4.8580731E-01 </wgt>
<wgt id='1538'> +4.8244902E-01 </wgt>
<wgt id='1539'> +4.7684390E-01 </wgt>
<wgt id='1540'> +4.8067640E-01 </wgt>
<wgt id='1541'> +4.8065959E-01 </wgt>
<wgt id='1542'> +4.9399756E-01 </wgt>
<wgt id='1543'> +4.4933805E-01 </wgt>
<wgt id='1544'> +4.7023161E-01 </wgt>
<wgt id='1545'> +5.0455450E-01 </wgt>
<wgt id='1546'> +4.8796698E-01 </wgt>
<wgt id='1547'> +4.6805520E-01 </wgt>
<wgt id='1548'> +4.6666782E-01 </wgt>
<wgt id='1549'> +4.8792199E-01 </wgt>
<wgt id='1550'> +4.7972382E-01 </wgt>
<wgt id='1551'> +4.8286167E-01 </wgt>
<wgt id='1552'> +4.9606538E-01 </wgt>
<wgt id='1553'> +4.7067370E-01 </wgt>
<wgt id='1554'> +4.5085267E-01 </wgt>
<wgt id='1555'> +5.2280539E-01 </wgt>
<wgt id='1556'> +4.7922450E-01 </wgt>
<wgt id='1557'> +4.8864891E-01 </wgt>
<wgt id='1558'> +5.0704474E-01 </wgt>
<wgt id='1559'> +4.5728494E-01 </wgt>
<wgt id='1560'> +4.5386072E-01 </wgt>
<wgt id='1561'> +4.8891344E-01 </wgt>
<wgt id='1562'> +4.8870062E-01 </wgt>
<wgt id='1563'> +4.7243652E-01 </wgt>
<wgt id='1564'> +4.8089219E-01 </wgt>
<wgt id='1565'> +4.5754361E-01 </wgt>
<wgt id='1566'> +5.1387123E-01 </wgt>
<wgt id='1567'> +4.8568425E-01 </wgt>
<wgt id='1568'> +4.9776320E-01 </wgt>
<wgt id='1569'> +4.9502528E-01 </wgt>
<wgt id='1570'> +4.9259873E-01 </wgt>
<wgt id='1571'> +4.9044259E-01 </wgt>
<wgt id='1572'> +4.8800615E-01 </wgt>
<wgt id='1573'> +4.8358162E-01 </wgt>
<wgt id='1574'> +4.8595799E-01 </wgt>
<wgt id='1575'> +4.8346481E-01 </wgt>
<wgt id='1576'> +4.8568425E-01 </wgt>
<wgt id='1577'> +4.8201127E-01 </wgt>
<wgt id='1578'> +4.8398339E-01 </wgt>
<wgt id='1579'> +4.8757622E-01 </wgt>
<wgt id='1580'> +4.8943923E-01 </wgt>
<wgt id='1581'> +4.3228612E-01 </wgt>
<wgt id='1582'> +4.3358933E-01 </wgt>
<wgt id='1583'> +4.2905141E-01 </wgt>
<wgt id='1584'> +4.3124262E-01 </wgt>
<wgt id='1585'> +4.2844040E-01 </wgt>
<wgt id='1586'> +4.8592919E-01 </wgt>
<wgt id='1587'> +4.4335506E-01 </wgt>
<wgt id='1588'> +4.2929360E-01 </wgt>
<wgt id='1589'> +4.3290005E-01 </wgt>
<wgt id='1590'> +4.4401194E-01 </wgt>
<wgt id='1591'> +4.4000106E-01 </wgt>
<wgt id='1592'> +4.1292567E-01 </wgt>
<wgt id='1593'> +4.3447773E-01 </wgt>
<wgt id='1594'> +4.4196008E-01 </wgt>
<wgt id='1595'> +4.3482267E-01 </wgt>
<wgt id='1596'> +4.4002886E-01 </wgt>
<wgt id='1597'> +4.3707218E-01 </wgt>
<wgt id='1598'> +4.3971168E-01 </wgt>
<wgt id='1599'> +4.2151136E-01 </wgt>
<wgt id='1600'> +4.2920778E-01 </wgt>
<wgt id='1601'> +4.2842278E-01 </wgt>
<wgt id='1602'> +4.3098063E-01 </wgt>
<wgt id='1603'> +4.3712243E-01 </wgt>
<wgt id='1604'> +4.2404552E-01 </wgt>
<wgt id='1605'> +4.2786397E-01 </wgt>
<wgt id='1606'> +4.2999289E-01 </wgt>
<wgt id='1607'> +4.3004697E-01 </wgt>
<wgt id='1608'> +4.2869689E-01 </wgt>
<wgt id='1609'> +4.2383850E-01 </wgt>
<wgt id='1610'> +4.3392269E-01 </wgt>
<wgt id='1611'> +4.1311585E-01 </wgt>
<wgt id='1612'> +3.9040653E-01 </wgt>
<wgt id='1613'> +3.8958809E-01 </wgt>
<wgt id='1614'> +3.8782952E-01 </wgt>
<wgt id='1615'> +3.8905084E-01 </wgt>
<wgt id='1616'> +3.8889036E-01 </wgt>
<wgt id='1617'> +3.8942844E-01 </wgt>
<wgt id='1618'> +3.8926984E-01 </wgt>
<wgt id='1619'> +3.9095324E-01 </wgt>
<wgt id='1620'> +3.8700445E-01 </wgt>
<wgt id='1621'> +3.8731606E-01 </wgt>
<wgt id='1622'> +3.9423688E-01 </wgt>
<wgt id='1623'> +3.8842640E-01 </wgt>
<wgt id='1624'> +3.8776212E-01 </wgt>
<wgt id='1625'> +3.8789463E-01 </wgt>
<wgt id='1626'> +3.8388034E-01 </wgt>
<wgt id='1627'> +3.9170963E-01 </wgt>
<wgt id='1628'> +3.8639399E-01 </wgt>
<wgt id='1629'> +3.9057119E-01 </wgt>
<wgt id='1630'> +3.9171079E-01 </wgt>
<wgt id='1631'> +3.8707910E-01 </wgt>
<wgt id='1632'> +3.8952411E-01 </wgt>
<wgt id='1633'> +3.8657976E-01 </wgt>
<wgt id='1634'> +3.8651528E-01 </wgt>
<wgt id='1635'> +3.9562560E-01 </wgt>
<wgt id='1636'> +3.8872776E-01 </wgt>
<wgt id='1637'> +3.8814602E-01 </wgt>
<wgt id='1638'> +3.9926828E-01 </wgt>
<wgt id='1639'> +3.8961605E-01 </wgt>
<wgt id='1640'> +3.8741926E-01 </wgt>
<wgt id='1641'> +4.0117224E-01 </wgt>
<wgt id='1642'> +3.8660054E-01 </wgt>
<wgt id='1643'> +3.8914500E-01 </wgt>
<wgt id='1644'> +3.8848178E-01 </wgt>
<wgt id='1645'> +3.9492067E-01 </wgt>
<wgt id='1646'> +3.9560824E-01 </wgt>
<wgt id='1647'> +3.8380736E-01 </wgt>
<wgt id='1648'> +3.8747791E-01 </wgt>
<wgt id='1649'> +3.9004101E-01 </wgt>
<wgt id='1650'> +3.8904941E-01 </wgt>
<wgt id='1651'> +3.8624168E-01 </wgt>
<wgt id='1652'> +3.8925822E-01 </wgt>
<wgt id='1653'> +3.8679820E-01 </wgt>
<wgt id='1654'> +3.9982582E-01 </wgt>
<wgt id='1655'> +3.9688053E-01 </wgt>
<wgt id='1656'> +3.8600273E-01 </wgt>
<wgt id='1657'> +4.0144187E-01 </wgt>
<wgt id='1658'> +3.8651423E-01 </wgt>
<wgt id='1659'> +3.8391786E-01 </wgt>
<wgt id='1660'> +3.9714346E-01 </wgt>
<wgt id='1661'> +3.8804243E-01 </wgt>
<wgt id='1662'> +3.9376866E-01 </wgt>
<wgt id='1663'> +3.8885363E-01 </wgt>
<wgt id='1664'> +3.9126099E-01 </wgt>
<wgt id='1665'> +3.9368481E-01 </wgt>
<wgt id='1666'> +3.9030675E-01 </wgt>
<wgt id='1667'> +3.9161771E-01 </wgt>
<wgt id='1668'> +3.8591475E-01 </wgt>
<wgt id='1669'> +3.9244050E-01 </wgt>
<wgt id='1670'> +3.8867803E-01 </wgt>
<wgt id='1671'> +3.8855858E-01 </wgt>
<wgt id='1672'> +3.9264908E-01 </wgt>
<wgt id='1673'> +3.9138615E-01 </wgt>
<wgt id='1674'> +3.8600088E-01 </wgt>
<wgt id='1675'> +3.9381085E-01 </wgt>
<wgt id='1676'> +3.9038228E-01 </wgt>
<wgt id='1677'> +3.9161957E-01 </wgt>
<wgt id='1678'> +3.9654973E-01 </wgt>
<wgt id='1679'> +3.8620838E-01 </wgt>
<wgt id='1680'> +3.9312611E-01 </wgt>
<wgt id='1681'> +3.9239327E-01 </wgt>
<wgt id='1682'> +3.8772972E-01 </wgt>
<wgt id='1683'> +3.8918880E-01 </wgt>
<wgt id='1684'> +3.8771580E-01 </wgt>
<wgt id='1685'> +3.9095291E-01 </wgt>
<wgt id='1686'> +3.8575145E-01 </wgt>
<wgt id='1687'> +3.8375411E-01 </wgt>
<wgt id='1688'> +3.9187625E-01 </wgt>
<wgt id='1689'> +3.8684631E-01 </wgt>
<wgt id='1690'> +3.9182702E-01 </wgt>
<wgt id='1691'> +3.9124685E-01 </wgt>
<wgt id='1692'> +3.9267882E-01 </wgt>
<wgt id='1693'> +3.9284351E-01 </wgt>
<wgt id='1694'> +3.9257940E-01 </wgt>
<wgt id='1695'> +3.9225673E-01 </wgt>
<wgt id='1696'> +3.9201020E-01 </wgt>
<wgt id='1697'> +3.9251888E-01 </wgt>
<wgt id='1698'> +3.8926709E-01 </wgt>
<wgt id='1699'> +3.8718993E-01 </wgt>
<wgt id='1700'> +3.9105916E-01 </wgt>
<wgt id='1701'> +3.9232370E-01 </wgt>
<wgt id='1702'> +3.9448804E-01 </wgt>
<wgt id='1703'> +3.8909078E-01 </wgt>
<wgt id='1704'> +3.9108394E-01 </wgt>
<wgt id='1705'> +3.9117630E-01 </wgt>
<wgt id='1706'> +3.9206095E-01 </wgt>
<wgt id='1707'> +3.9108443E-01 </wgt>
<wgt id='1708'> +3.9017600E-01 </wgt>
<wgt id='1709'> +3.9278730E-01 </wgt>
<wgt id='1710'> +3.8915428E-01 </wgt>
<wgt id='1711'> +3.9166669E-01 </wgt>
<wgt id='1712'> +3.9193967E-01 </wgt>
<wgt id='1713'> +3.8214292E-01 </wgt>
<wgt id='1714'> +4.0744462E-01 </wgt>
<wgt id='1715'> +3.8940559E-01 </wgt>
<wgt id='1716'> +4.1057271E-01 </wgt>
<wgt id='1717'> +3.8341283E-01 </wgt>
<wgt id='1718'> +4.1900680E-01 </wgt>
<wgt id='1719'> +3.9381726E-01 </wgt>
<wgt id='1720'> +4.1128655E-01 </wgt>
<wgt id='1721'> +4.2315754E-01 </wgt>
<wgt id='1722'> +4.5688330E-01 </wgt>
<wgt id='1723'> +3.8735327E-01 </wgt>
<wgt id='1724'> +3.9199181E-01 </wgt>
<wgt id='1725'> +3.8827197E-01 </wgt>
<wgt id='1726'> +3.7734109E-01 </wgt>
<wgt id='1727'> +4.0445619E-01 </wgt>
<wgt id='1728'> +4.0257751E-01 </wgt>
<wgt id='1729'> +4.0861606E-01 </wgt>
<wgt id='1730'> +3.9599378E-01 </wgt>
<wgt id='1731'> +4.0702481E-01 </wgt>
<wgt id='1732'> +3.5118918E-01 </wgt>
<wgt id='1733'> +3.8120839E-01 </wgt>
<wgt id='1734'> +3.5950170E-01 </wgt>
<wgt id='1735'> +5.4606280E-01 </wgt>
<wgt id='1736'> +4.3309969E-01 </wgt>
<wgt id='1737'> +3.6860656E-01 </wgt>
<wgt id='1738'> +3.9808943E-01 </wgt>
<wgt id='1739'> +3.8291215E-01 </wgt>
<wgt id='1740'> +4.2520967E-01 </wgt>
<wgt id='1741'> +3.9385455E-01 </wgt>
<wgt id='1742'> +3.5781722E-01 </wgt>
<wgt id='1743'> +3.4109154E-01 </wgt>
<wgt id='1744'> +4.1249724E-01 </wgt>
<wgt id='1745'> +4.3782450E-01 </wgt>
<wgt id='1746'> +3.9456410E-01 </wgt>
<wgt id='1747'> +4.2016748E-01 </wgt>
<wgt id='1748'> +4.2077251E-01 </wgt>
<wgt id='1749'> +3.9607419E-01 </wgt>
<wgt id='1750'> +3.6779173E-01 </wgt>
<wgt id='1751'> +3.7642199E-01 </wgt>
<wgt id='1752'> +3.8244550E-01 </wgt>
<wgt id='1753'> +3.7489433E-01 </wgt>
<wgt id='1754'> +3.9682156E-01 </wgt>
<wgt id='1755'> +4.2003305E-01 </wgt>
<wgt id='1756'> +3.3444492E-01 </wgt>
<wgt id='1757'> +4.2092356E-01 </wgt>
<wgt id='1758'> +4.0349777E-01 </wgt>
<wgt id='1759'> +3.6438839E-01 </wgt>
<wgt id='1760'> +4.2532795E-01 </wgt>
<wgt id='1761'> +4.6072847E-01 </wgt>
<wgt id='1762'> +4.0445619E-01 </wgt>
<wgt id='1763'> +4.0684848E-01 </wgt>
<wgt id='1764'> +3.8409608E-01 </wgt>
<wgt id='1765'> +3.7423568E-01 </wgt>
<wgt id='1766'> +3.6297637E-01 </wgt>
<wgt id='1767'> +3.7069679E-01 </wgt>
<wgt id='1768'> +3.8197517E-01 </wgt>
<wgt id='1769'> +3.1178368E-01 </wgt>
<wgt id='1770'> +3.8670387E-01 </wgt>
<wgt id='1771'> +4.2848889E-01 </wgt>
<wgt id='1772'> +3.5951276E-01 </wgt>
<wgt id='1773'> +3.7425947E-01 </wgt>
<wgt id='1774'> +3.2142919E-01 </wgt>
<wgt id='1775'> +3.5507265E-01 </wgt>
<wgt id='1776'> +3.6413313E-01 </wgt>
<wgt id='1777'> +3.8692691E-01 </wgt>
<wgt id='1778'> +3.7302752E-01 </wgt>
<wgt id='1779'> +3.2493610E-01 </wgt>
<wgt id='1780'> +3.1444261E-01 </wgt>
<wgt id='1781'> +4.0202100E-01 </wgt>
<wgt id='1782'> +3.4180397E-01 </wgt>
<wgt id='1783'> +3.4144815E-01 </wgt>
<wgt id='1784'> +3.4435256E-01 </wgt>
<wgt id='1785'> +3.9506379E-01 </wgt>
<wgt id='1786'> +3.7146265E-01 </wgt>
<wgt id='1787'> +4.1587510E-01 </wgt>
<wgt id='1788'> +4.1482369E-01 </wgt>
<wgt id='1789'> +3.9327467E-01 </wgt>
<wgt id='1790'> +3.5328169E-01 </wgt>
<wgt id='1791'> +4.3588018E-01 </wgt>
<wgt id='1792'> +3.7424982E-01 </wgt>
<wgt id='1793'> +3.8795169E-01 </wgt>
<wgt id='1794'> +3.5454366E-01 </wgt>
<wgt id='1795'> +4.2293763E-01 </wgt>
<wgt id='1796'> +3.7083552E-01 </wgt>
<wgt id='1797'> +4.2953649E-01 </wgt>
<wgt id='1798'> +3.5078771E-01 </wgt>
<wgt id='1799'> +3.5904427E-01 </wgt>
<wgt id='1800'> +3.8341732E-01 </wgt>
<wgt id='1801'> +3.9081619E-01 </wgt>
<wgt id='1802'> +3.4773788E-01 </wgt>
<wgt id='1803'> +3.9201606E-01 </wgt>
<wgt id='1804'> +3.8233362E-01 </wgt>
<wgt id='1805'> +3.8590305E-01 </wgt>
<wgt id='1806'> +3.5535984E-01 </wgt>
<wgt id='1807'> +3.9477518E-01 </wgt>
<wgt id='1808'> +4.3632806E-01 </wgt>
<wgt id='1809'> +4.1485188E-01 </wgt>
<wgt id='1810'> +4.1537433E-01 </wgt>
<wgt id='1811'> +3.9182957E-01 </wgt>
<wgt id='1812'> +4.0745637E-01 </wgt>
<wgt id='1813'> +4.2950428E-01 </wgt>
<wgt id='1814'> +3.5402262E-01 </wgt>
<wgt id='1815'> +4.0704784E-01 </wgt>
<wgt id='1816'> +4.2720292E-01 </wgt>
<wgt id='1817'> +4.1323169E-01 </wgt>
<wgt id='1818'> +4.5047695E-01 </wgt>
<wgt id='1819'> +4.3438847E-01 </wgt>
<wgt id='1820'> +4.2577120E-01 </wgt>
<wgt id='1821'> +3.7895057E-01 </wgt>
<wgt id='1822'> +4.2910708E-01 </wgt>
<wgt id='1823'> +3.9126063E-01 </wgt>
<wgt id='1824'> +4.5092136E-01 </wgt>
<wgt id='1825'> +4.3015470E-01 </wgt>
<wgt id='1826'> +3.8529988E-01 </wgt>
<wgt id='1827'> +4.0870821E-01 </wgt>
<wgt id='1828'> +4.1594479E-01 </wgt>
<wgt id='1829'> +4.3727521E-01 </wgt>
<wgt id='1830'> +3.9580032E-01 </wgt>
<wgt id='1831'> +4.3932240E-01 </wgt>
<wgt id='1832'> +4.3713175E-01 </wgt>
<wgt id='1833'> +5.5884670E-01 </wgt>
<wgt id='1834'> +5.2976250E-01 </wgt>
<wgt id='1835'> +4.0127669E-01 </wgt>
<wgt id='1836'> +4.3024824E-01 </wgt>
<wgt id='1837'> +3.6220258E-01 </wgt>
<wgt id='1838'> +3.1580506E-01 </wgt>
<wgt id='1839'> +3.7981437E-01 </wgt>
<wgt id='1840'> +3.5961727E-01 </wgt>
<wgt id='1841'> +4.5793757E-01 </wgt>
<wgt id='1842'> +4.4211597E-01 </wgt>
<wgt id='1843'> +5.2067031E-01 </wgt>
<wgt id='1844'> +4.6208747E-01 </wgt>
<wgt id='1845'> +4.7356476E-01 </wgt>
<wgt id='1846'> +4.1858927E-01 </wgt>
<wgt id='1847'> +4.3139109E-01 </wgt>
<wgt id='1848'> +3.8259999E-01 </wgt>
<wgt id='1849'> +4.3576657E-01 </wgt>
<wgt id='1850'> +3.6747078E-01 </wgt>
<wgt id='1851'> +4.7903444E-01 </wgt>
<wgt id='1852'> +4.5260417E-01 </wgt>
<wgt id='1853'> +4.7730401E-01 </wgt>
<wgt id='1854'> +3.7955962E-01 </wgt>
<wgt id='1855'> +3.7169060E-01 </wgt>
<wgt id='1856'> +4.2550213E-01 </wgt>
<wgt id='1857'> +3.5198377E-01 </wgt>
<wgt id='1858'> +4.6838888E-01 </wgt>
<wgt id='1859'> +4.0143138E-01 </wgt>
<wgt id='1860'> +4.7616886E-01 </wgt>
<wgt id='1861'> +3.4876527E-01 </wgt>
<wgt id='1862'> +3.4978193E-01 </wgt>
<wgt id='1863'> +4.9782979E-01 </wgt>
<wgt id='1864'> +4.1832888E-01 </wgt>
<wgt id='1865'> +4.4501794E-01 </wgt>
<wgt id='1866'> +4.2596184E-01 </wgt>
<wgt id='1867'> +4.4212039E-01 </wgt>
<wgt id='1868'> +4.0951367E-01 </wgt>
<wgt id='1869'> +3.8080015E-01 </wgt>
<wgt id='1870'> +4.3642464E-01 </wgt>
<wgt id='1871'> +4.1642165E-01 </wgt>
<wgt id='1872'> +4.8731318E-01 </wgt>
<wgt id='1873'> +4.4234975E-01 </wgt>
<wgt id='1874'> +4.2733849E-01 </wgt>
<wgt id='1875'> +4.4152863E-01 </wgt>
<wgt id='1876'> +3.8304900E-01 </wgt>
<wgt id='1877'> +4.3371315E-01 </wgt>
<wgt id='1878'> +3.9872886E-01 </wgt>
<wgt id='1879'> +4.4317065E-01 </wgt>
<wgt id='1880'> +6.2966969E-01 </wgt>
<wgt id='1881'> +4.4475863E-01 </wgt>
<wgt id='1882'> +4.2736544E-01 </wgt>
<wgt id='1883'> +3.5893109E-01 </wgt>
<wgt id='1884'> +3.9549202E-01 </wgt>
<wgt id='1885'> +4.6167856E-01 </wgt>
<wgt id='1886'> +4.5980974E-01 </wgt>
<wgt id='1887'> +3.4709235E-01 </wgt>
<wgt id='1888'> +4.3756865E-01 </wgt>
<wgt id='1889'> +3.4615223E-01 </wgt>
<wgt id='1890'> +5.0968603E-01 </wgt>
<wgt id='1891'> +4.2098794E-01 </wgt>
<wgt id='1892'> +4.0053496E-01 </wgt>
<wgt id='1893'> +3.8388760E-01 </wgt>
<wgt id='1894'> +4.5434985E-01 </wgt>
<wgt id='1895'> +4.1589533E-01 </wgt>
<wgt id='1896'> +4.1263569E-01 </wgt>
<wgt id='1897'> +3.4980462E-01 </wgt>
<wgt id='1898'> +3.5419311E-01 </wgt>
<wgt id='1899'> +4.9131668E-01 </wgt>
<wgt id='1900'> +3.9098536E-01 </wgt>
<wgt id='1901'> +4.8147402E-01 </wgt>
<wgt id='1902'> +4.7255820E-01 </wgt>
<wgt id='1903'> +4.5345009E-01 </wgt>
<wgt id='1904'> +4.2826635E-01 </wgt>
<wgt id='1905'> +4.7892597E-01 </wgt>
<wgt id='1906'> +4.1445164E-01 </wgt>
<wgt id='1907'> +4.4630934E-01 </wgt>
<wgt id='1908'> +3.6655026E-01 </wgt>
<wgt id='1909'> +4.4600792E-01 </wgt>
<wgt id='1910'> +3.5746712E-01 </wgt>
<wgt id='1911'> +5.3819801E-01 </wgt>
<wgt id='1912'> +4.0747030E-01 </wgt>
<wgt id='1913'> +4.6997001E-01 </wgt>
<wgt id='1914'> +3.5181152E-01 </wgt>
<wgt id='1915'> +4.7517204E-01 </wgt>
<wgt id='1916'> +5.0761576E-01 </wgt>
<wgt id='1917'> +2.8267609E-01 </wgt>
<wgt id='1918'> +2.6441455E-01 </wgt>
<wgt id='1919'> +4.2720292E-01 </wgt>
<wgt id='1920'> +4.1323169E-01 </wgt>
<wgt id='1921'> +4.5047695E-01 </wgt>
<wgt id='1922'> +4.3438847E-01 </wgt>
<wgt id='1923'> +4.2577120E-01 </wgt>
<wgt id='1924'> +3.7895057E-01 </wgt>
<wgt id='1925'> +4.2910708E-01 </wgt>
<wgt id='1926'> +3.9126063E-01 </wgt>
<wgt id='1927'> +4.5092136E-01 </wgt>
<wgt id='1928'> +4.3015470E-01 </wgt>
<wgt id='1929'> +3.8529988E-01 </wgt>
<wgt id='1930'> +4.0870821E-01 </wgt>
<wgt id='1931'> +4.1594479E-01 </wgt>
<wgt id='1932'> +4.3727521E-01 </wgt>
<wgt id='1933'> +3.9580032E-01 </wgt>
<wgt id='1934'> +4.3932240E-01 </wgt>
<wgt id='1935'> +4.3713175E-01 </wgt>
<wgt id='1936'> +5.5884670E-01 </wgt>
<wgt id='1937'> +5.2976250E-01 </wgt>
<wgt id='1938'> +4.0127669E-01 </wgt>
<wgt id='1939'> +4.3024824E-01 </wgt>
<wgt id='1940'> +3.6220258E-01 </wgt>
<wgt id='1941'> +3.1580506E-01 </wgt>
<wgt id='1942'> +3.7981437E-01 </wgt>
<wgt id='1943'> +3.5961727E-01 </wgt>
<wgt id='1944'> +4.5793757E-01 </wgt>
<wgt id='1945'> +4.4211597E-01 </wgt>
<wgt id='1946'> +5.2067031E-01 </wgt>
<wgt id='1947'> +4.6208747E-01 </wgt>
<wgt id='1948'> +4.7356476E-01 </wgt>
<wgt id='1949'> +4.1858927E-01 </wgt>
<wgt id='1950'> +4.3139109E-01 </wgt>
<wgt id='1951'> +3.8259999E-01 </wgt>
<wgt id='1952'> +4.3576657E-01 </wgt>
<wgt id='1953'> +3.6747078E-01 </wgt>
<wgt id='1954'> +4.7903444E-01 </wgt>
<wgt id='1955'> +4.5260417E-01 </wgt>
<wgt id='1956'> +4.7730401E-01 </wgt>
<wgt id='1957'> +3.7955962E-01 </wgt>
<wgt id='1958'> +3.7169060E-01 </wgt>
<wgt id='1959'> +4.2550213E-01 </wgt>
<wgt id='1960'> +3.5198377E-01 </wgt>
<wgt id='1961'> +4.6838888E-01 </wgt>
<wgt id='1962'> +4.0143138E-01 </wgt>
<wgt id='1963'> +4.7616886E-01 </wgt>
<wgt id='1964'> +3.4876527E-01 </wgt>
<wgt id='1965'> +3.4978193E-01 </wgt>
<wgt id='1966'> +4.9782979E-01 </wgt>
<wgt id='1967'> +4.1832888E-01 </wgt>
<wgt id='1968'> +4.4501794E-01 </wgt>
<wgt id='1969'> +4.2596184E-01 </wgt>
<wgt id='1970'> +4.4212039E-01 </wgt>
<wgt id='1971'> +4.0951367E-01 </wgt>
<wgt id='1972'> +3.8080015E-01 </wgt>
<wgt id='1973'> +4.3642464E-01 </wgt>
<wgt id='1974'> +4.1642165E-01 </wgt>
<wgt id='1975'> +4.8731318E-01 </wgt>
<wgt id='1976'> +4.4234975E-01 </wgt>
<wgt id='1977'> +4.2733849E-01 </wgt>
<wgt id='1978'> +4.4152863E-01 </wgt>
<wgt id='1979'> +3.8304900E-01 </wgt>
<wgt id='1980'> +4.3371315E-01 </wgt>
<wgt id='1981'> +3.9872886E-01 </wgt>
<wgt id='1982'> +4.4317065E-01 </wgt>
<wgt id='1983'> +6.2966969E-01 </wgt>
<wgt id='1984'> +4.4475863E-01 </wgt>
<wgt id='1985'> +4.2736544E-01 </wgt>
<wgt id='1986'> +3.5893109E-01 </wgt>
<wgt id='1987'> +3.9549202E-01 </wgt>
<wgt id='1988'> +4.6167856E-01 </wgt>
<wgt id='1989'> +4.5980974E-01 </wgt>
<wgt id='1990'> +3.4709235E-01 </wgt>
<wgt id='1991'> +4.3756865E-01 </wgt>
<wgt id='1992'> +3.4615223E-01 </wgt>
<wgt id='1993'> +5.0968603E-01 </wgt>
<wgt id='1994'> +4.2098794E-01 </wgt>
<wgt id='1995'> +4.0053496E-01 </wgt>
<wgt id='1996'> +3.8388760E-01 </wgt>
<wgt id='1997'> +4.5434985E-01 </wgt>
<wgt id='1998'> +4.1589533E-01 </wgt>
<wgt id='1999'> +4.1263569E-01 </wgt>
<wgt id='2000'> +3.4980462E-01 </wgt>
<wgt id='2001'> +3.5419311E-01 </wgt>
<wgt id='2002'> +4.9131668E-01 </wgt>
<wgt id='2003'> +3.9098536E-01 </wgt>
<wgt id='2004'> +4.8147402E-01 </wgt>
<wgt id='2005'> +4.7255820E-01 </wgt>
<wgt id='2006'> +4.5345009E-01 </wgt>
<wgt id='2007'> +4.2826635E-01 </wgt>
<wgt id='2008'> +4.7892597E-01 </wgt>
<wgt id='2009'> +4.1445164E-01 </wgt>
<wgt id='2010'> +4.4630934E-01 </wgt>
<wgt id='2011'> +3.6655026E-01 </wgt>
<wgt id='2012'> +4.4600792E-01 </wgt>
<wgt id='2013'> +3.5746712E-01 </wgt>
<wgt id='2014'> +5.3819801E-01 </wgt>
<wgt id='2015'> +4.0747030E-01 </wgt>
<wgt id='2016'> +4.6997001E-01 </wgt>
<wgt id='2017'> +3.5181152E-01 </wgt>
<wgt id='2018'> +4.7517204E-01 </wgt>
<wgt id='2019'> +5.0761576E-01 </wgt>
<wgt id='2020'> +4.1502004E-01 </wgt>
<wgt id='2021'> +4.4885209E-01 </wgt>
<wgt id='2022'> +4.1127518E-01 </wgt>
</rwgt>
</event>
<event>
12      2 +3.9556008E-01 9.27680200e+01 7.81860800e-03 1.13424500e-01
       21 -1    0    0  502  503 +0.0000000000e+00 +0.0000000000e+00 +2.8655158411e+02 2.8655158411e+02 0.0000000000e+00 0.0000e+00 1.0000e+00
       -4 -1    0    0    0  501 +0.0000000000e+00 +0.0000000000e+00 -4.7654082540e+02 4.7654251769e+02 1.2700000000e+00 0.0000e+00 1.0000e+00
       -3  1    1    2    0  501 +9.2917402372e+00 -9.1761403215e+01 -7.2509292245e+01 1.1732049786e+02 1.0100000000e-01 0.0000e+00 1.0000e+00
        5  1    1    2  502    0 -6.7748484738e+00 -7.5444250577e+00 -2.9186273245e+01 3.1248429848e+01 4.6700000000e+00 0.0000e+00 -1.0000e+00
       -6  2    1    2    0  503 -1.4361459901e+02 +6.2618941056e+01 +1.8133899097e+02 2.9513029055e+02 1.7225496778e+02 0.0000e+00 0.0000e+00
       -5  1    5    5    0  503 -1.0981953514e+02 -2.4720080212e+01 +9.8338699151e+01 1.4954504778e+02 4.6700000000e+00 0.0000e+00 1.0000e+00
      -24  2    5    5    0    0 -3.3795063865e+01 +8.7339021268e+01 +8.3000291823e+01 1.4558524277e+02 7.4402980391e+01 0.0000e+00 0.0000e+00
      -12  1    7    7    0    0 +1.9037811447e+01 +7.6821228763e+00 +2.9816090906e+01 3.6200173390e+01 0.0000000000e+00 0.0000e+00 1.0000e+00
       11  1    7    7    0    0 -5.2832875312e+01 +7.9656898391e+01 +5.3184200917e+01 1.0938506938e+02 5.1100000000e-04 0.0000e+00 -1.0000e+00
       23  2    1    2    0    0 +1.4109770724e+02 +3.6686887217e+01 -2.6963266677e+02 3.1939488354e+02 8.9759823737e+01 0.0000e+00 0.0000e+00
       16  1   10   10    0    0 +5.0402241457e+01 -9.1721654412e+00 -1.6811537555e+02 1.7574781381e+02 0.0000000000e+00 0.0000e+00 -1.0000e+00
      -16  1   10   10    0    0 +9.0695465786e+01 +4.5859052658e+01 -1.0151729123e+02 1.4364706973e+02 0.0000000000e+00 0.0000e+00 1.0000e+00
<mgrwt>
<rscale>  1 0.87391092e+02</rscale>
<asrwt>0</asrwt>
<pdfrwt beam="1">  1       21 0.44084859e-01 0.82325815e+02</pdfrwt>
<pdfrwt beam="2">  1       -4 0.73314319e-01 0.92768022e+02</pdfrwt>
<totfact> 0.38773023e+02</totfact>
</mgrwt>
<rwgt>
<wgt id='1001'> +3.9556008E-01 </wgt>
<wgt id='1002'> +3.0431121E-01 </wgt>
<wgt id='1003'> +3.0422415E-01 </wgt>
<wgt id='1004'> +3.3752698E-01 </wgt>
<wgt id='1005'> +2.8580552E-01 </wgt>
<wgt id='1006'> +3.5629902E-01 </wgt>
<wgt id='1007'> +2.8029603E-01 </wgt>
<wgt id='1008'> +2.8022144E-01 </wgt>
<wgt id='1009'> +3.0849595E-01 </wgt>
<wgt id='1010'> +2.6433008E-01 </wgt>
<wgt id='1011'> +4.4492128E-01 </wgt>
<wgt id='1012'> +3.3295652E-01 </wgt>
<wgt id='1013'> +3.3285319E-01 </wgt>
<wgt id='1014'> +3.7277889E-01 </wgt>
<wgt id='1015'> +3.1117870E-01 </wgt>
<wgt id='1016'> +3.9555893E-01 </wgt>
<wgt id='1017'> +2.9811936E-01 </wgt>
<wgt id='1018'> +2.9802743E-01 </wgt>
<wgt id='1019'> +3.3285319E-01 </wgt>
<wgt id='1020'> +2.7936451E-01 </wgt>
<wgt id='1021'> +3.5629798E-01 </wgt>
<wgt id='1022'> +2.7459281E-01 </wgt>
<wgt id='1023'> +2.7451363E-01 </wgt>
<wgt id='1024'> +3.0422415E-01 </wgt>
<wgt id='1025'> +2.5837304E-01 </wgt>
<wgt id='1026'> +4.4491999E-01 </wgt>
<wgt id='1027'> +3.2618182E-01 </wgt>
<wgt id='1028'> +3.2607332E-01 </wgt>
<wgt id='1029'> +3.6761695E-01 </wgt>
<wgt id='1030'> +3.0416587E-01 </wgt>
<wgt id='1031'> +3.8845033E-01 </wgt>
<wgt id='1032'> +3.0857975E-01 </wgt>
<wgt id='1033'> +3.0849595E-01 </wgt>
<wgt id='1034'> +3.3916224E-01 </wgt>
<wgt id='1035'> +2.9091734E-01 </wgt>
<wgt id='1036'> +3.4989493E-01 </wgt>
<wgt id='1037'> +2.8422771E-01 </wgt>
<wgt id='1038'> +2.8415620E-01 </wgt>
<wgt id='1039'> +3.0999056E-01 </wgt>
<wgt id='1040'> +2.6905779E-01 </wgt>
<wgt id='1041'> +4.3692431E-01 </wgt>
<wgt id='1042'> +3.3762686E-01 </wgt>
<wgt id='1043'> +3.3752698E-01 </wgt>
<wgt id='1044'> +3.7458493E-01 </wgt>
<wgt id='1045'> +3.1674434E-01 </wgt>
<wgt id='1046'> +3.9556008E-01 </wgt>
<wgt id='1047'> +3.9556008E-01 </wgt>
<wgt id='1048'> +3.9556008E-01 </wgt>
<wgt id='1049'> +3.9904090E-01 </wgt>
<wgt id='1050'> +3.9513254E-01 </wgt>
<wgt id='1051'> +3.9350839E-01 </wgt>
<wgt id='1052'> +3.9484686E-01 </wgt>
<wgt id='1053'> +3.9257257E-01 </wgt>
<wgt id='1054'> +3.9795766E-01 </wgt>
<wgt id='1055'> +3.9869433E-01 </wgt>
<wgt id='1056'> +4.0078492E-01 </wgt>
<wgt id='1057'> +3.9116670E-01 </wgt>
<wgt id='1058'> +3.9769146E-01 </wgt>
<wgt id='1059'> +3.9575036E-01 </wgt>
<wgt id='1060'> +3.9519105E-01 </wgt>
<wgt id='1061'> +3.9315559E-01 </wgt>
<wgt id='1062'> +3.9920832E-01 </wgt>
<wgt id='1063'> +3.8822537E-01 </wgt>
<wgt id='1064'> +4.0388704E-01 </wgt>
<wgt id='1065'> +3.9949400E-01 </wgt>
<wgt id='1066'> +4.0059832E-01 </wgt>
<wgt id='1067'> +3.8946892E-01 </wgt>
<wgt id='1068'> +3.9507580E-01 </wgt>
<wgt id='1069'> +3.9667459E-01 </wgt>
<wgt id='1070'> +3.8630361E-01 </wgt>
<wgt id='1071'> +3.9564269E-01 </wgt>
<wgt id='1072'> +4.0096415E-01 </wgt>
<wgt id='1073'> +3.9783780E-01 </wgt>
<wgt id='1074'> +3.9305598E-01 </wgt>
<wgt id='1075'> +3.8657232E-01 </wgt>
<wgt id='1076'> +3.9633733E-01 </wgt>
<wgt id='1077'> +3.8335950E-01 </wgt>
<wgt id='1078'> +3.9571924E-01 </wgt>
<wgt id='1079'> +3.8104292E-01 </wgt>
<wgt id='1080'> +3.9976810E-01 </wgt>
<wgt id='1081'> +3.9162042E-01 </wgt>
<wgt id='1082'> +3.9002121E-01 </wgt>
<wgt id='1083'> +3.9377694E-01 </wgt>
<wgt id='1084'> +4.0082819E-01 </wgt>
<wgt id='1085'> +3.9868624E-01 </wgt>
<wgt id='1086'> +3.9118527E-01 </wgt>
<wgt id='1087'> +3.9369542E-01 </wgt>
<wgt id='1088'> +3.9062028E-01 </wgt>
<wgt id='1089'> +3.9520203E-01 </wgt>
<wgt id='1090'> +3.9530836E-01 </wgt>
<wgt id='1091'> +3.9839128E-01 </wgt>
<wgt id='1092'> +3.9381448E-01 </wgt>
<wgt id='1093'> +3.9769342E-01 </wgt>
<wgt id='1094'> +3.9670215E-01 </wgt>
<wgt id='1095'> +3.9770807E-01 </wgt>
<wgt id='1096'> +3.9241930E-01 </wgt>
<wgt id='1097'> +3.9565386E-01 </wgt>
<wgt id='1098'> +3.9583631E-01 </wgt>
<wgt id='1099'> +3.9557442E-01 </wgt>
<wgt id='1100'> +3.9318930E-01 </wgt>
<wgt id='1101'> +3.9417700E-01 </wgt>
<wgt id='1102'> +3.9340887E-01 </wgt>
<wgt id='1103'> +3.9557671E-01 </wgt>
<wgt id='1104'> +3.9004544E-01 </wgt>
<wgt id='1105'> +3.9447734E-01 </wgt>
<wgt id='1106'> +3.9338682E-01 </wgt>
<wgt id='1107'> +3.9320853E-01 </wgt>
<wgt id='1108'> +3.9382199E-01 </wgt>
<wgt id='1109'> +3.9289868E-01 </wgt>
<wgt id='1110'> +3.9421368E-01 </wgt>
<wgt id='1111'> +4.0106891E-01 </wgt>
<wgt id='1112'> +3.9817011E-01 </wgt>
<wgt id='1113'> +3.9599164E-01 </wgt>
<wgt id='1114'> +3.8981384E-01 </wgt>
<wgt id='1115'> +3.9458450E-01 </wgt>
<wgt id='1116'> +3.9199564E-01 </wgt>
<wgt id='1117'> +3.9448814E-01 </wgt>
<wgt id='1118'> +3.9022560E-01 </wgt>
<wgt id='1119'> +3.9549906E-01 </wgt>
<wgt id='1120'> +3.9819189E-01 </wgt>
<wgt id='1121'> +3.9754596E-01 </wgt>
<wgt id='1122'> +3.9780080E-01 </wgt>
<wgt id='1123'> +3.9563747E-01 </wgt>
<wgt id='1124'> +3.9568722E-01 </wgt>
<wgt id='1125'> +3.9378201E-01 </wgt>
<wgt id='1126'> +3.9395778E-01 </wgt>
<wgt id='1127'> +3.9674838E-01 </wgt>
<wgt id='1128'> +3.9523999E-01 </wgt>
<wgt id='1129'> +3.9598423E-01 </wgt>
<wgt id='1130'> +3.9198138E-01 </wgt>
<wgt id='1131'> +3.9475874E-01 </wgt>
<wgt id='1132'> +3.9335139E-01 </wgt>
<wgt id='1133'> +3.9658171E-01 </wgt>
<wgt id='1134'> +3.9501191E-01 </wgt>
<wgt id='1135'> +3.9361600E-01 </wgt>
<wgt id='1136'> +3.9569308E-01 </wgt>
<wgt id='1137'> +3.9471785E-01 </wgt>
<wgt id='1138'> +3.9934303E-01 </wgt>
<wgt id='1139'> +3.9560033E-01 </wgt>
<wgt id='1140'> +3.9468941E-01 </wgt>
<wgt id='1141'> +3.9525858E-01 </wgt>
<wgt id='1142'> +3.9173451E-01 </wgt>
<wgt id='1143'> +3.9406586E-01 </wgt>
<wgt id='1144'> +3.9678791E-01 </wgt>
<wgt id='1145'> +3.9855715E-01 </wgt>
<wgt id='1146'> +3.9561603E-01 </wgt>
<wgt id='1147'> +3.9370580E-01 </wgt>
<wgt id='1148'> +3.9556008E-01 </wgt>
<wgt id='1149'> +4.1804501E-01 </wgt>
<wgt id='1150'> +3.4321680E-01 </wgt>
<wgt id='1151'> +4.3188130E-01 </wgt>
<wgt id='1152'> +4.4428637E-01 </wgt>
<wgt id='1153'> +4.3829575E-01 </wgt>
<wgt id='1154'> +4.2687871E-01 </wgt>
<wgt id='1155'> +4.5096633E-01 </wgt>
<wgt id='1156'> +4.0450427E-01 </wgt>
<wgt id='1157'> +4.3387365E-01 </wgt>
<wgt id='1158'> +4.0187388E-01 </wgt>
<wgt id='1159'> +4.5222042E-01 </wgt>
<wgt id='1160'> +4.5065786E-01 </wgt>
<wgt id='1161'> +4.3047994E-01 </wgt>
<wgt id='1162'> +4.3994228E-01 </wgt>
<wgt id='1163'> +4.2555136E-01 </wgt>
<wgt id='1164'> +3.9744231E-01 </wgt>
<wgt id='1165'> +4.3783220E-01 </wgt>
<wgt id='1166'> +4.0374969E-01 </wgt>
<wgt id='1167'> +4.3481536E-01 </wgt>
<wgt id='1168'> +3.7796574E-01 </wgt>
<wgt id='1169'> +4.1819136E-01 </wgt>
<wgt id='1170'> +3.8150556E-01 </wgt>
<wgt id='1171'> +3.6925271E-01 </wgt>
<wgt id='1172'> +3.7957418E-01 </wgt>
<wgt id='1173'> +4.1972589E-01 </wgt>
<wgt id='1174'> +4.1038344E-01 </wgt>
<wgt id='1175'> +3.9166385E-01 </wgt>
<wgt id='1176'> +3.7328498E-01 </wgt>
<wgt id='1177'> +4.0579396E-01 </wgt>
<wgt id='1178'> +4.3494940E-01 </wgt>
<wgt id='1179'> +4.4111098E-01 </wgt>
<wgt id='1180'> +4.0022970E-01 </wgt>
<wgt id='1181'> +5.0438203E-01 </wgt>
<wgt id='1182'> +3.8165843E-01 </wgt>
<wgt id='1183'> +4.3683687E-01 </wgt>
<wgt id='1184'> +4.5044826E-01 </wgt>
<wgt id='1185'> +4.1343377E-01 </wgt>
<wgt id='1186'> +3.8733364E-01 </wgt>
<wgt id='1187'> +4.4418722E-01 </wgt>
<wgt id='1188'> +3.8046591E-01 </wgt>
<wgt id='1189'> +4.3228880E-01 </wgt>
<wgt id='1190'> +3.8531458E-01 </wgt>
<wgt id='1191'> +4.3364684E-01 </wgt>
<wgt id='1192'> +3.8557134E-01 </wgt>
<wgt id='1193'> +3.8277204E-01 </wgt>
<wgt id='1194'> +4.2791334E-01 </wgt>
<wgt id='1195'> +4.0761233E-01 </wgt>
<wgt id='1196'> +4.4149722E-01 </wgt>
<wgt id='1197'> +4.1953442E-01 </wgt>
<wgt id='1198'> +3.9299733E-01 </wgt>
<wgt id='1199'> +4.0797848E-01 </wgt>
<wgt id='1200'> +4.0507697E-01 </wgt>
<wgt id='1201'> +4.1934001E-01 </wgt>
<wgt id='1202'> +4.6618293E-01 </wgt>
<wgt id='1203'> +3.7540230E-01 </wgt>
<wgt id='1204'> +3.5482007E-01 </wgt>
<wgt id='1205'> +3.9609930E-01 </wgt>
<wgt id='1206'> +3.4544935E-01 </wgt>
<wgt id='1207'> +3.7159009E-01 </wgt>
<wgt id='1208'> +4.0411015E-01 </wgt>
<wgt id='1209'> +3.4309363E-01 </wgt>
<wgt id='1210'> +4.0846643E-01 </wgt>
<wgt id='1211'> +4.1356042E-01 </wgt>
<wgt id='1212'> +4.1034505E-01 </wgt>
<wgt id='1213'> +4.8089186E-01 </wgt>
<wgt id='1214'> +3.9286101E-01 </wgt>
<wgt id='1215'> +4.2012488E-01 </wgt>
<wgt id='1216'> +3.9061716E-01 </wgt>
<wgt id='1217'> +3.9472216E-01 </wgt>
<wgt id='1218'> +4.3417223E-01 </wgt>
<wgt id='1219'> +4.5136862E-01 </wgt>
<wgt id='1220'> +3.7966935E-01 </wgt>
<wgt id='1221'> +3.8782444E-01 </wgt>
<wgt id='1222'> +5.2050381E-01 </wgt>
<wgt id='1223'> +4.9264070E-01 </wgt>
<wgt id='1224'> +4.3335250E-01 </wgt>
<wgt id='1225'> +3.5744798E-01 </wgt>
<wgt id='1226'> +4.6685795E-01 </wgt>
<wgt id='1227'> +3.9175041E-01 </wgt>
<wgt id='1228'> +4.4198363E-01 </wgt>
<wgt id='1229'> +4.3429392E-01 </wgt>
<wgt id='1230'> +4.3062979E-01 </wgt>
<wgt id='1231'> +4.3783220E-01 </wgt>
<wgt id='1232'> +4.8732570E-01 </wgt>
<wgt id='1233'> +4.3712929E-01 </wgt>
<wgt id='1234'> +4.2511489E-01 </wgt>
<wgt id='1235'> +4.0340765E-01 </wgt>
<wgt id='1236'> +4.2683123E-01 </wgt>
<wgt id='1237'> +4.5526826E-01 </wgt>
<wgt id='1238'> +5.4213062E-01 </wgt>
<wgt id='1239'> +4.3712079E-01 </wgt>
<wgt id='1240'> +3.8958479E-01 </wgt>
<wgt id='1241'> +4.6754555E-01 </wgt>
<wgt id='1242'> +4.2486916E-01 </wgt>
<wgt id='1243'> +4.5095133E-01 </wgt>
<wgt id='1244'> +4.3358756E-01 </wgt>
<wgt id='1245'> +3.9669732E-01 </wgt>
<wgt id='1246'> +3.9766275E-01 </wgt>
<wgt id='1247'> +4.1773374E-01 </wgt>
<wgt id='1248'> +4.1102777E-01 </wgt>
<wgt id='1249'> +3.8681903E-01 </wgt>
<wgt id='1250'> +4.0720817E-01 </wgt>
<wgt id='1251'> +4.0799392E-01 </wgt>
<wgt id='1252'> +4.7255053E-01 </wgt>
<wgt id='1253'> +4.2442608E-01 </wgt>
<wgt id='1254'> +3.5394096E-01 </wgt>
<wgt id='1255'> +4.8128993E-01 </wgt>
<wgt id='1256'> +4.7975665E-01 </wgt>
<wgt id='1257'> +4.8219121E-01 </wgt>
<wgt id='1258'> +4.8159940E-01 </wgt>
<wgt id='1259'> +4.8114084E-01 </wgt>
<wgt id='1260'> +4.7940832E-01 </wgt>
<wgt id='1261'> +4.8382274E-01 </wgt>
<wgt id='1262'> +4.7972680E-01 </wgt>
<wgt id='1263'> +4.8229370E-01 </wgt>
<wgt id='1264'> +4.7915379E-01 </wgt>
<wgt id='1265'> +4.8277208E-01 </wgt>
<wgt id='1266'> +4.8381734E-01 </wgt>
<wgt id='1267'> +4.7878283E-01 </wgt>
<wgt id='1268'> +4.8020462E-01 </wgt>
<wgt id='1269'> +4.8216519E-01 </wgt>
<wgt id='1270'> +4.7407442E-01 </wgt>
<wgt id='1271'> +4.8871792E-01 </wgt>
<wgt id='1272'> +4.7913688E-01 </wgt>
<wgt id='1273'> +4.8292289E-01 </wgt>
<wgt id='1274'> +4.8356384E-01 </wgt>
<wgt id='1275'> +4.7847348E-01 </wgt>
<wgt id='1276'> +4.8847007E-01 </wgt>
<wgt id='1277'> +4.7361796E-01 </wgt>
<wgt id='1278'> +4.7678880E-01 </wgt>
<wgt id='1279'> +4.8461283E-01 </wgt>
<wgt id='1280'> +4.8133801E-01 </wgt>
<wgt id='1281'> +4.8149851E-01 </wgt>
<wgt id='1282'> +4.8933268E-01 </wgt>
<wgt id='1283'> +4.7259410E-01 </wgt>
<wgt id='1284'> +4.7793975E-01 </wgt>
<wgt id='1285'> +4.8474694E-01 </wgt>
<wgt id='1286'> +4.8158369E-01 </wgt>
<wgt id='1287'> +4.8128352E-01 </wgt>
<wgt id='1288'> +4.8512215E-01 </wgt>
<wgt id='1289'> +4.7946307E-01 </wgt>
<wgt id='1290'> +4.8106730E-01 </wgt>
<wgt id='1291'> +4.8135621E-01 </wgt>
<wgt id='1292'> +4.8757990E-01 </wgt>
<wgt id='1293'> +4.7325215E-01 </wgt>
<wgt id='1294'> +4.7168530E-01 </wgt>
<wgt id='1295'> +4.8528277E-01 </wgt>
<wgt id='1296'> +4.4388339E-01 </wgt>
<wgt id='1297'> +4.4596893E-01 </wgt>
<wgt id='1298'> +4.4217873E-01 </wgt>
<wgt id='1299'> +4.4422874E-01 </wgt>
<wgt id='1300'> +4.4349712E-01 </wgt>
<wgt id='1301'> +4.4427341E-01 </wgt>
<wgt id='1302'> +4.4330831E-01 </wgt>
<wgt id='1303'> +4.4440297E-01 </wgt>
<wgt id='1304'> +4.4352589E-01 </wgt>
<wgt id='1305'> +4.4293684E-01 </wgt>
<wgt id='1306'> +4.4522415E-01 </wgt>
<wgt id='1307'> +4.3838336E-01 </wgt>
<wgt id='1308'> +4.4728358E-01 </wgt>
<wgt id='1309'> +4.4505056E-01 </wgt>
<wgt id='1310'> +4.4229720E-01 </wgt>
<wgt id='1311'> +4.4246879E-01 </wgt>
<wgt id='1312'> +4.4439605E-01 </wgt>
<wgt id='1313'> +4.3985331E-01 </wgt>
<wgt id='1314'> +4.4862932E-01 </wgt>
<wgt id='1315'> +4.4379890E-01 </wgt>
<wgt id='1316'> +4.4393440E-01 </wgt>
<wgt id='1317'> +4.5139382E-01 </wgt>
<wgt id='1318'> +4.3090645E-01 </wgt>
<wgt id='1319'> +4.3887340E-01 </wgt>
<wgt id='1320'> +4.4705706E-01 </wgt>
<wgt id='1321'> +4.4094205E-01 </wgt>
<wgt id='1322'> +4.4527630E-01 </wgt>
<wgt id='1323'> +4.4198713E-01 </wgt>
<wgt id='1324'> +4.4605310E-01 </wgt>
<wgt id='1325'> +4.3919878E-01 </wgt>
<wgt id='1326'> +4.5208043E-01 </wgt>
<wgt id='1327'> +4.4272296E-01 </wgt>
<wgt id='1328'> +4.4433914E-01 </wgt>
<wgt id='1329'> +4.4515359E-01 </wgt>
<wgt id='1330'> +4.4311329E-01 </wgt>
<wgt id='1331'> +4.4499107E-01 </wgt>
<wgt id='1332'> +4.4327653E-01 </wgt>
<wgt id='1333'> +4.5422209E-01 </wgt>
<wgt id='1334'> +4.3411815E-01 </wgt>
<wgt id='1335'> +4.4423865E-01 </wgt>
<wgt id='1336'> +4.4379534E-01 </wgt>
<wgt id='1337'> +4.4388339E-01 </wgt>
<wgt id='1338'> +4.4255042E-01 </wgt>
<wgt id='1339'> +4.4305505E-01 </wgt>
<wgt id='1340'> +4.4342019E-01 </wgt>
<wgt id='1341'> +4.4425272E-01 </wgt>
<wgt id='1342'> +4.4451720E-01 </wgt>
<wgt id='1343'> +4.4476584E-01 </wgt>
<wgt id='1344'> +4.4561422E-01 </wgt>
<wgt id='1345'> +4.4798193E-01 </wgt>
<wgt id='1346'> +4.4329726E-01 </wgt>
<wgt id='1347'> +4.4341960E-01 </wgt>
<wgt id='1348'> +4.4725672E-01 </wgt>
<wgt id='1349'> +4.4619084E-01 </wgt>
<wgt id='1350'> +4.4514669E-01 </wgt>
<wgt id='1351'> +4.4556887E-01 </wgt>
<wgt id='1352'> +4.4569205E-01 </wgt>
<wgt id='1353'> +4.4475630E-01 </wgt>
<wgt id='1354'> +4.4623377E-01 </wgt>
<wgt id='1355'> +4.4519760E-01 </wgt>
<wgt id='1356'> +4.4595489E-01 </wgt>
<wgt id='1357'> +4.3983270E-01 </wgt>
<wgt id='1358'> +4.4911222E-01 </wgt>
<wgt id='1359'> +4.4679836E-01 </wgt>
<wgt id='1360'> +4.4261260E-01 </wgt>
<wgt id='1361'> +4.3467890E-01 </wgt>
<wgt id='1362'> +4.5526570E-01 </wgt>
<wgt id='1363'> +4.4403085E-01 </wgt>
<wgt id='1364'> +4.4764497E-01 </wgt>
<wgt id='1365'> +4.4375114E-01 </wgt>
<wgt id='1366'> +4.4642253E-01 </wgt>
<wgt id='1367'> +4.4335355E-01 </wgt>
<wgt id='1368'> +4.4669290E-01 </wgt>
<wgt id='1369'> +4.5342640E-01 </wgt>
<wgt id='1370'> +4.3915815E-01 </wgt>
<wgt id='1371'> +4.4414351E-01 </wgt>
<wgt id='1372'> +4.4833887E-01 </wgt>
<wgt id='1373'> +4.4965069E-01 </wgt>
<wgt id='1374'> +4.4482510E-01 </wgt>
<wgt id='1375'> +4.4684539E-01 </wgt>
<wgt id='1376'> +4.4538627E-01 </wgt>
<wgt id='1377'> +4.4533740E-01 </wgt>
<wgt id='1378'> +4.4626557E-01 </wgt>
<wgt id='1379'> +4.4393282E-01 </wgt>
<wgt id='1380'> +4.4727495E-01 </wgt>
<wgt id='1381'> +4.3834812E-01 </wgt>
<wgt id='1382'> +4.4930486E-01 </wgt>
<wgt id='1383'> +4.4513304E-01 </wgt>
<wgt id='1384'> +4.4763945E-01 </wgt>
<wgt id='1385'> +4.4561422E-01 </wgt>
<wgt id='1386'> +4.4407008E-01 </wgt>
<wgt id='1387'> +4.4470612E-01 </wgt>
<wgt id='1388'> +4.4517172E-01 </wgt>
<wgt id='1389'> +4.4596931E-01 </wgt>
<wgt id='1390'> +4.4621424E-01 </wgt>
<wgt id='1391'> +4.4644068E-01 </wgt>
<wgt id='1392'> +4.5696715E-01 </wgt>
<wgt id='1393'> +4.5744641E-01 </wgt>
<wgt id='1394'> +4.5645882E-01 </wgt>
<wgt id='1395'> +4.5749408E-01 </wgt>
<wgt id='1396'> +4.5659881E-01 </wgt>
<wgt id='1397'> +4.6032394E-01 </wgt>
<wgt id='1398'> +4.5373843E-01 </wgt>
<wgt id='1399'> +4.5479963E-01 </wgt>
<wgt id='1400'> +4.5968582E-01 </wgt>
<wgt id='1401'> +4.5818412E-01 </wgt>
<wgt id='1402'> +4.5545214E-01 </wgt>
<wgt id='1403'> +4.5769638E-01 </wgt>
<wgt id='1404'> +4.5552052E-01 </wgt>
<wgt id='1405'> +4.5679009E-01 </wgt>
<wgt id='1406'> +4.5722435E-01 </wgt>
<wgt id='1407'> +4.5608854E-01 </wgt>
<wgt id='1408'> +4.5759207E-01 </wgt>
<wgt id='1409'> +4.5432577E-01 </wgt>
<wgt id='1410'> +4.5996590E-01 </wgt>
<wgt id='1411'> +4.5630648E-01 </wgt>
<wgt id='1412'> +4.5748811E-01 </wgt>
<wgt id='1413'> +4.5547521E-01 </wgt>
<wgt id='1414'> +4.5855857E-01 </wgt>
<wgt id='1415'> +4.5406471E-01 </wgt>
<wgt id='1416'> +4.5991463E-01 </wgt>
<wgt id='1417'> +4.5789936E-01 </wgt>
<wgt id='1418'> +4.5587844E-01 </wgt>
<wgt id='1419'> +4.5750448E-01 </wgt>
<wgt id='1420'> +4.5676437E-01 </wgt>
<wgt id='1421'> +4.5293027E-01 </wgt>
<wgt id='1422'> +4.6177498E-01 </wgt>
<wgt id='1423'> +4.4521089E-01 </wgt>
<wgt id='1424'> +4.6590247E-01 </wgt>
<wgt id='1425'> +4.5834299E-01 </wgt>
<wgt id='1426'> +4.5514888E-01 </wgt>
<wgt id='1427'> +4.5843995E-01 </wgt>
<wgt id='1428'> +4.5389900E-01 </wgt>
<wgt id='1429'> +4.5735983E-01 </wgt>
<wgt id='1430'> +4.5684869E-01 </wgt>
<wgt id='1431'> +4.5483837E-01 </wgt>
<wgt id='1432'> +4.5905755E-01 </wgt>
<wgt id='1433'> +4.5127394E-01 </wgt>
<wgt id='1434'> +4.6385204E-01 </wgt>
<wgt id='1435'> +4.6215051E-01 </wgt>
<wgt id='1436'> +4.5499087E-01 </wgt>
<wgt id='1437'> +4.5639092E-01 </wgt>
<wgt id='1438'> +4.5852605E-01 </wgt>
<wgt id='1439'> +4.6445010E-01 </wgt>
<wgt id='1440'> +4.4652565E-01 </wgt>
<wgt id='1441'> +4.5907488E-01 </wgt>
<wgt id='1442'> +4.5592523E-01 </wgt>
<wgt id='1443'> +4.4247872E-01 </wgt>
<wgt id='1444'> +4.4298177E-01 </wgt>
<wgt id='1445'> +4.4194306E-01 </wgt>
<wgt id='1446'> +4.4303602E-01 </wgt>
<wgt id='1447'> +4.4210844E-01 </wgt>
<wgt id='1448'> +4.4580815E-01 </wgt>
<wgt id='1449'> +4.3940335E-01 </wgt>
<wgt id='1450'> +4.4015583E-01 </wgt>
<wgt id='1451'> +4.4510085E-01 </wgt>
<wgt id='1452'> +4.4355511E-01 </wgt>
<wgt id='1453'> +4.4141906E-01 </wgt>
<wgt id='1454'> +4.4321756E-01 </wgt>
<wgt id='1455'> +4.4088265E-01 </wgt>
<wgt id='1456'> +4.4216259E-01 </wgt>
<wgt id='1457'> +4.4305990E-01 </wgt>
<wgt id='1458'> +4.4148874E-01 </wgt>
<wgt id='1459'> +4.4305208E-01 </wgt>
<wgt id='1460'> +4.3948623E-01 </wgt>
<wgt id='1461'> +4.4599617E-01 </wgt>
<wgt id='1462'> +4.4254240E-01 </wgt>
<wgt id='1463'> +4.4243392E-01 </wgt>
<wgt id='1464'> +4.4104236E-01 </wgt>
<wgt id='1465'> +4.4437626E-01 </wgt>
<wgt id='1466'> +4.3836217E-01 </wgt>
<wgt id='1467'> +4.4526897E-01 </wgt>
<wgt id='1468'> +4.4518179E-01 </wgt>
<wgt id='1469'> +4.3987989E-01 </wgt>
<wgt id='1470'> +4.4299833E-01 </wgt>
<wgt id='1471'> +4.4234304E-01 </wgt>
<wgt id='1472'> +4.3948245E-01 </wgt>
<wgt id='1473'> +4.4613104E-01 </wgt>
<wgt id='1474'> +4.3432414E-01 </wgt>
<wgt id='1475'> +4.5173327E-01 </wgt>
<wgt id='1476'> +4.4608719E-01 </wgt>
<wgt id='1477'> +4.3898262E-01 </wgt>
<wgt id='1478'> +4.4389785E-01 </wgt>
<wgt id='1479'> +4.3922956E-01 </wgt>
<wgt id='1480'> +4.4311055E-01 </wgt>
<wgt id='1481'> +4.4221497E-01 </wgt>
<wgt id='1482'> +4.4046597E-01 </wgt>
<wgt id='1483'> +4.4477084E-01 </wgt>
<wgt id='1484'> +4.3714784E-01 </wgt>
<wgt id='1485'> +4.4859705E-01 </wgt>
<wgt id='1486'> +4.4807714E-01 </wgt>
<wgt id='1487'> +4.4003155E-01 </wgt>
<wgt id='1488'> +4.4168475E-01 </wgt>
<wgt id='1489'> +4.4452841E-01 </wgt>
<wgt id='1490'> +4.5087570E-01 </wgt>
<wgt id='1491'> +4.3224187E-01 </wgt>
<wgt id='1492'> +4.4598205E-01 </wgt>
<wgt id='1493'> +4.4076106E-01 </wgt>
<wgt id='1494'> +4.3708377E-01 </wgt>
<wgt id='1495'> +4.1704796E-01 </wgt>
<wgt id='1496'> +4.2360240E-01 </wgt>
<wgt id='1497'> +4.3025815E-01 </wgt>
<wgt id='1498'> +4.4400655E-01 </wgt>
<wgt id='1499'> +4.3692317E-01 </wgt>
<wgt id='1500'> +4.7896615E-01 </wgt>
<wgt id='1501'> +4.6976209E-01 </wgt>
<wgt id='1502'> +4.6117248E-01 </wgt>
<wgt id='1503'> +4.5289444E-01 </wgt>
<wgt id='1504'> +4.4478086E-01 </wgt>
<wgt id='1505'> +4.2961144E-01 </wgt>
<wgt id='1506'> +4.2239337E-01 </wgt>
<wgt id='1507'> +4.1542512E-01 </wgt>
<wgt id='1508'> +4.3692317E-01 </wgt>
<wgt id='1509'> +4.3579368E-01 </wgt>
<wgt id='1510'> +4.3634196E-01 </wgt>
<wgt id='1511'> +4.3756097E-01 </wgt>
<wgt id='1512'> +4.3816416E-01 </wgt>
<wgt id='1513'> +4.4563209E-01 </wgt>
<wgt id='1514'> +4.4558858E-01 </wgt>
<wgt id='1515'> +4.4569588E-01 </wgt>
<wgt id='1516'> +4.4764810E-01 </wgt>
<wgt id='1517'> +4.4364162E-01 </wgt>
<wgt id='1518'> +4.4728074E-01 </wgt>
<wgt id='1519'> +4.4498135E-01 </wgt>
<wgt id='1520'> +4.4495906E-01 </wgt>
<wgt id='1521'> +4.4631506E-01 </wgt>
<wgt id='1522'> +4.4632920E-01 </wgt>
<wgt id='1523'> +4.4498264E-01 </wgt>
<wgt id='1524'> +4.4307023E-01 </wgt>
<wgt id='1525'> +4.4674923E-01 </wgt>
<wgt id='1526'> +4.4550646E-01 </wgt>
<wgt id='1527'> +4.4578724E-01 </wgt>
<wgt id='1528'> +4.4519709E-01 </wgt>
<wgt id='1529'> +4.4611798E-01 </wgt>
<wgt id='1530'> +4.4519347E-01 </wgt>
<wgt id='1531'> +4.4590018E-01 </wgt>
<wgt id='1532'> +4.4578096E-01 </wgt>
<wgt id='1533'> +4.4544930E-01 </wgt>
<wgt id='1534'> +4.4443863E-01 </wgt>
<wgt id='1535'> +4.4647023E-01 </wgt>
<wgt id='1536'> +4.5144734E-01 </wgt>
<wgt id='1537'> +4.4016566E-01 </wgt>
<wgt id='1538'> +4.4752989E-01 </wgt>
<wgt id='1539'> +4.4092212E-01 </wgt>
<wgt id='1540'> +4.4613260E-01 </wgt>
<wgt id='1541'> +4.4501123E-01 </wgt>
<wgt id='1542'> +4.4800947E-01 </wgt>
<wgt id='1543'> +4.3975006E-01 </wgt>
<wgt id='1544'> +4.4212397E-01 </wgt>
<wgt id='1545'> +4.5296650E-01 </wgt>
<wgt id='1546'> +4.4672361E-01 </wgt>
<wgt id='1547'> +4.4355870E-01 </wgt>
<wgt id='1548'> +4.4090209E-01 </wgt>
<wgt id='1549'> +4.4779369E-01 </wgt>
<wgt id='1550'> +4.4543639E-01 </wgt>
<wgt id='1551'> +4.4583609E-01 </wgt>
<wgt id='1552'> +4.4274038E-01 </wgt>
<wgt id='1553'> +4.4784684E-01 </wgt>
<wgt id='1554'> +4.4660246E-01 </wgt>
<wgt id='1555'> +4.4400159E-01 </wgt>
<wgt id='1556'> +4.4629749E-01 </wgt>
<wgt id='1557'> +4.4181791E-01 </wgt>
<wgt id='1558'> +4.3609933E-01 </wgt>
<wgt id='1559'> +4.5263950E-01 </wgt>
<wgt id='1560'> +4.4994391E-01 </wgt>
<wgt id='1561'> +4.4376658E-01 </wgt>
<wgt id='1562'> +4.4126467E-01 </wgt>
<wgt id='1563'> +4.4874022E-01 </wgt>
<wgt id='1564'> +4.4563209E-01 </wgt>
<wgt id='1565'> +4.3774633E-01 </wgt>
<wgt id='1566'> +4.5171731E-01 </wgt>
<wgt id='1567'> +4.4458836E-01 </wgt>
<wgt id='1568'> +4.9147501E-01 </wgt>
<wgt id='1569'> +4.8105598E-01 </wgt>
<wgt id='1570'> +4.7109937E-01 </wgt>
<wgt id='1571'> +4.6191209E-01 </wgt>
<wgt id='1572'> +4.5308600E-01 </wgt>
<wgt id='1573'> +4.3627204E-01 </wgt>
<wgt id='1574'> +4.2799815E-01 </wgt>
<wgt id='1575'> +4.2059867E-01 </wgt>
<wgt id='1576'> +4.4458836E-01 </wgt>
<wgt id='1577'> +4.4299080E-01 </wgt>
<wgt id='1578'> +4.4382961E-01 </wgt>
<wgt id='1579'> +4.4536270E-01 </wgt>
<wgt id='1580'> +4.4611172E-01 </wgt>
<wgt id='1581'> +4.3527933E-01 </wgt>
<wgt id='1582'> +4.3670294E-01 </wgt>
<wgt id='1583'> +4.4288397E-01 </wgt>
<wgt id='1584'> +4.3084893E-01 </wgt>
<wgt id='1585'> +4.3939332E-01 </wgt>
<wgt id='1586'> +4.2898804E-01 </wgt>
<wgt id='1587'> +4.3736808E-01 </wgt>
<wgt id='1588'> +4.4544167E-01 </wgt>
<wgt id='1589'> +4.3484009E-01 </wgt>
<wgt id='1590'> +4.3944168E-01 </wgt>
<wgt id='1591'> +4.3318624E-01 </wgt>
<wgt id='1592'> +4.2819771E-01 </wgt>
<wgt id='1593'> +4.3866504E-01 </wgt>
<wgt id='1594'> +4.3170020E-01 </wgt>
<wgt id='1595'> +4.3252415E-01 </wgt>
<wgt id='1596'> +4.4234622E-01 </wgt>
<wgt id='1597'> +4.3809130E-01 </wgt>
<wgt id='1598'> +4.4452512E-01 </wgt>
<wgt id='1599'> +4.3360695E-01 </wgt>
<wgt id='1600'> +4.3936891E-01 </wgt>
<wgt id='1601'> +4.3234955E-01 </wgt>
<wgt id='1602'> +4.3725882E-01 </wgt>
<wgt id='1603'> +4.3503910E-01 </wgt>
<wgt id='1604'> +4.3344131E-01 </wgt>
<wgt id='1605'> +4.3549675E-01 </wgt>
<wgt id='1606'> +4.3598912E-01 </wgt>
<wgt id='1607'> +4.3795886E-01 </wgt>
<wgt id='1608'> +4.3299047E-01 </wgt>
<wgt id='1609'> +4.3648833E-01 </wgt>
<wgt id='1610'> +4.3478767E-01 </wgt>
<wgt id='1611'> +4.4237732E-01 </wgt>
<wgt id='1612'> +3.8900174E-01 </wgt>
<wgt id='1613'> +3.8803127E-01 </wgt>
<wgt id='1614'> +3.8628354E-01 </wgt>
<wgt id='1615'> +3.8777285E-01 </wgt>
<wgt id='1616'> +3.9084383E-01 </wgt>
<wgt id='1617'> +3.8830201E-01 </wgt>
<wgt id='1618'> +3.8659555E-01 </wgt>
<wgt id='1619'> +3.9137615E-01 </wgt>
<wgt id='1620'> +3.8756801E-01 </wgt>
<wgt id='1621'> +3.8542872E-01 </wgt>
<wgt id='1622'> +3.9110887E-01 </wgt>
<wgt id='1623'> +3.9035058E-01 </wgt>
<wgt id='1624'> +3.8754820E-01 </wgt>
<wgt id='1625'> +3.8814091E-01 </wgt>
<wgt id='1626'> +3.8381328E-01 </wgt>
<wgt id='1627'> +3.8749635E-01 </wgt>
<wgt id='1628'> +3.8480023E-01 </wgt>
<wgt id='1629'> +3.9112522E-01 </wgt>
<wgt id='1630'> +3.9147172E-01 </wgt>
<wgt id='1631'> +3.9014364E-01 </wgt>
<wgt id='1632'> +3.9192376E-01 </wgt>
<wgt id='1633'> +3.8517322E-01 </wgt>
<wgt id='1634'> +3.8685439E-01 </wgt>
<wgt id='1635'> +3.9841461E-01 </wgt>
<wgt id='1636'> +3.8435673E-01 </wgt>
<wgt id='1637'> +3.9085642E-01 </wgt>
<wgt id='1638'> +3.9919441E-01 </wgt>
<wgt id='1639'> +3.8385452E-01 </wgt>
<wgt id='1640'> +3.8387158E-01 </wgt>
<wgt id='1641'> +4.0328950E-01 </wgt>
<wgt id='1642'> +3.8667555E-01 </wgt>
<wgt id='1643'> +3.8836247E-01 </wgt>
<wgt id='1644'> +3.8873429E-01 </wgt>
<wgt id='1645'> +3.8947911E-01 </wgt>
<wgt id='1646'> +3.9355185E-01 </wgt>
<wgt id='1647'> +3.8095379E-01 </wgt>
<wgt id='1648'> +3.8995926E-01 </wgt>
<wgt id='1649'> +3.9408903E-01 </wgt>
<wgt id='1650'> +3.8749474E-01 </wgt>
<wgt id='1651'> +3.8866422E-01 </wgt>
<wgt id='1652'> +3.8935808E-01 </wgt>
<wgt id='1653'> +3.8947903E-01 </wgt>
<wgt id='1654'> +3.8561694E-01 </wgt>
<wgt id='1655'> +3.8858615E-01 </wgt>
<wgt id='1656'> +3.8862545E-01 </wgt>
<wgt id='1657'> +3.8930722E-01 </wgt>
<wgt id='1658'> +3.8733147E-01 </wgt>
<wgt id='1659'> +3.8764221E-01 </wgt>
<wgt id='1660'> +3.8715327E-01 </wgt>
<wgt id='1661'> +3.8966851E-01 </wgt>
<wgt id='1662'> +3.8938902E-01 </wgt>
<wgt id='1663'> +3.8940743E-01 </wgt>
<wgt id='1664'> +3.9281537E-01 </wgt>
<wgt id='1665'> +3.8924708E-01 </wgt>
<wgt id='1666'> +3.8892957E-01 </wgt>
<wgt id='1667'> +3.9104038E-01 </wgt>
<wgt id='1668'> +3.8843427E-01 </wgt>
<wgt id='1669'> +3.8721057E-01 </wgt>
<wgt id='1670'> +3.8171052E-01 </wgt>
<wgt id='1671'> +3.8889058E-01 </wgt>
<wgt id='1672'> +3.8597950E-01 </wgt>
<wgt id='1673'> +3.8943166E-01 </wgt>
<wgt id='1674'> +3.8832801E-01 </wgt>
<wgt id='1675'> +3.8956046E-01 </wgt>
<wgt id='1676'> +3.9320225E-01 </wgt>
<wgt id='1677'> +3.8329923E-01 </wgt>
<wgt id='1678'> +3.9035563E-01 </wgt>
<wgt id='1679'> +3.8953303E-01 </wgt>
<wgt id='1680'> +3.8714535E-01 </wgt>
<wgt id='1681'> +3.8496030E-01 </wgt>
<wgt id='1682'> +3.9298188E-01 </wgt>
<wgt id='1683'> +3.9516286E-01 </wgt>
<wgt id='1684'> +3.8792082E-01 </wgt>
<wgt id='1685'> +3.8480873E-01 </wgt>
<wgt id='1686'> +3.9098299E-01 </wgt>
<wgt id='1687'> +3.8849537E-01 </wgt>
<wgt id='1688'> +3.8702674E-01 </wgt>
<wgt id='1689'> +3.9276286E-01 </wgt>
<wgt id='1690'> +3.8965056E-01 </wgt>
<wgt id='1691'> +3.8957407E-01 </wgt>
<wgt id='1692'> +3.8689699E-01 </wgt>
<wgt id='1693'> +3.8785280E-01 </wgt>
<wgt id='1694'> +3.8709363E-01 </wgt>
<wgt id='1695'> +3.9009983E-01 </wgt>
<wgt id='1696'> +3.8872524E-01 </wgt>
<wgt id='1697'> +3.8823126E-01 </wgt>
<wgt id='1698'> +3.8933537E-01 </wgt>
<wgt id='1699'> +3.9256397E-01 </wgt>
<wgt id='1700'> +3.8633696E-01 </wgt>
<wgt id='1701'> +3.9096681E-01 </wgt>
<wgt id='1702'> +3.9008068E-01 </wgt>
<wgt id='1703'> +3.9111146E-01 </wgt>
<wgt id='1704'> +3.8799743E-01 </wgt>
<wgt id='1705'> +3.9040659E-01 </wgt>
<wgt id='1706'> +3.8791711E-01 </wgt>
<wgt id='1707'> +3.8870850E-01 </wgt>
<wgt id='1708'> +3.8880564E-01 </wgt>
<wgt id='1709'> +3.8395740E-01 </wgt>
<wgt id='1710'> +3.9405738E-01 </wgt>
<wgt id='1711'> +3.8933569E-01 </wgt>
<wgt id='1712'> +3.8633718E-01 </wgt>
<wgt id='1713'> +3.5991254E-01 </wgt>
<wgt id='1714'> +4.2071077E-01 </wgt>
<wgt id='1715'> +3.7895400E-01 </wgt>
<wgt id='1716'> +3.7053324E-01 </wgt>
<wgt id='1717'> +3.9906469E-01 </wgt>
<wgt id='1718'> +4.1602432E-01 </wgt>
<wgt id='1719'> +4.1559899E-01 </wgt>
<wgt id='1720'> +3.7807930E-01 </wgt>
<wgt id='1721'> +3.7225711E-01 </wgt>
<wgt id='1722'> +3.7396464E-01 </wgt>
<wgt id='1723'> +3.8145239E-01 </wgt>
<wgt id='1724'> +3.7010656E-01 </wgt>
<wgt id='1725'> +3.6351663E-01 </wgt>
<wgt id='1726'> +3.9068141E-01 </wgt>
<wgt id='1727'> +3.6676992E-01 </wgt>
<wgt id='1728'> +3.6429142E-01 </wgt>
<wgt id='1729'> +4.1776943E-01 </wgt>
<wgt id='1730'> +3.7773054E-01 </wgt>
<wgt id='1731'> +4.6102209E-01 </wgt>
<wgt id='1732'> +3.4952056E-01 </wgt>
<wgt id='1733'> +3.8770217E-01 </wgt>
<wgt id='1734'> +3.7878365E-01 </wgt>
<wgt id='1735'> +4.3159568E-01 </wgt>
<wgt id='1736'> +4.6666186E-01 </wgt>
<wgt id='1737'> +3.7075568E-01 </wgt>
<wgt id='1738'> +3.1452521E-01 </wgt>
<wgt id='1739'> +3.8450657E-01 </wgt>
<wgt id='1740'> +3.8027979E-01 </wgt>
<wgt id='1741'> +3.6683369E-01 </wgt>
<wgt id='1742'> +4.1053365E-01 </wgt>
<wgt id='1743'> +4.0028841E-01 </wgt>
<wgt id='1744'> +3.8369550E-01 </wgt>
<wgt id='1745'> +4.1715086E-01 </wgt>
<wgt id='1746'> +4.2028085E-01 </wgt>
<wgt id='1747'> +3.8902464E-01 </wgt>
<wgt id='1748'> +3.9826305E-01 </wgt>
<wgt id='1749'> +3.6060853E-01 </wgt>
<wgt id='1750'> +3.4464290E-01 </wgt>
<wgt id='1751'> +3.6963957E-01 </wgt>
<wgt id='1752'> +3.7701363E-01 </wgt>
<wgt id='1753'> +4.5220390E-01 </wgt>
<wgt id='1754'> +4.6600472E-01 </wgt>
<wgt id='1755'> +4.3422186E-01 </wgt>
<wgt id='1756'> +3.2427570E-01 </wgt>
<wgt id='1757'> +3.8492091E-01 </wgt>
<wgt id='1758'> +3.9285691E-01 </wgt>
<wgt id='1759'> +3.6380387E-01 </wgt>
<wgt id='1760'> +3.7720349E-01 </wgt>
<wgt id='1761'> +4.1815191E-01 </wgt>
<wgt id='1762'> +3.6676992E-01 </wgt>
<wgt id='1763'> +3.6839189E-01 </wgt>
<wgt id='1764'> +3.2956004E-01 </wgt>
<wgt id='1765'> +3.1103556E-01 </wgt>
<wgt id='1766'> +3.4480469E-01 </wgt>
<wgt id='1767'> +3.7480012E-01 </wgt>
<wgt id='1768'> +4.2019119E-01 </wgt>
<wgt id='1769'> +3.7805610E-01 </wgt>
<wgt id='1770'> +3.2995755E-01 </wgt>
<wgt id='1771'> +3.7731950E-01 </wgt>
<wgt id='1772'> +3.7128734E-01 </wgt>
<wgt id='1773'> +4.0151748E-01 </wgt>
<wgt id='1774'> +3.8817195E-01 </wgt>
<wgt id='1775'> +3.4573610E-01 </wgt>
<wgt id='1776'> +4.1638132E-01 </wgt>
<wgt id='1777'> +3.2854006E-01 </wgt>
<wgt id='1778'> +3.7104537E-01 </wgt>
<wgt id='1779'> +3.7826894E-01 </wgt>
<wgt id='1780'> +3.8319867E-01 </wgt>
<wgt id='1781'> +3.9692850E-01 </wgt>
<wgt id='1782'> +3.6315373E-01 </wgt>
<wgt id='1783'> +3.0672306E-01 </wgt>
<wgt id='1784'> +3.2500415E-01 </wgt>
<wgt id='1785'> +3.5768590E-01 </wgt>
<wgt id='1786'> +3.5521734E-01 </wgt>
<wgt id='1787'> +3.4843326E-01 </wgt>
<wgt id='1788'> +3.6875451E-01 </wgt>
<wgt id='1789'> +3.3444229E-01 </wgt>
<wgt id='1790'> +3.7059093E-01 </wgt>
<wgt id='1791'> +4.4547998E-01 </wgt>
<wgt id='1792'> +3.3724367E-01 </wgt>
<wgt id='1793'> +3.0320096E-01 </wgt>
<wgt id='1794'> +3.2725804E-01 </wgt>
<wgt id='1795'> +3.8653025E-01 </wgt>
<wgt id='1796'> +3.9030812E-01 </wgt>
<wgt id='1797'> +3.8523562E-01 </wgt>
<wgt id='1798'> +3.5240974E-01 </wgt>
<wgt id='1799'> +4.0843153E-01 </wgt>
<wgt id='1800'> +3.6983386E-01 </wgt>
<wgt id='1801'> +3.7953910E-01 </wgt>
<wgt id='1802'> +3.8687243E-01 </wgt>
<wgt id='1803'> +4.0111487E-01 </wgt>
<wgt id='1804'> +3.4440171E-01 </wgt>
<wgt id='1805'> +3.4751679E-01 </wgt>
<wgt id='1806'> +3.8140686E-01 </wgt>
<wgt id='1807'> +4.1387179E-01 </wgt>
<wgt id='1808'> +4.9248154E-01 </wgt>
<wgt id='1809'> +3.3695492E-01 </wgt>
<wgt id='1810'> +4.0821124E-01 </wgt>
<wgt id='1811'> +3.7074754E-01 </wgt>
<wgt id='1812'> +3.7192858E-01 </wgt>
<wgt id='1813'> +3.7588058E-01 </wgt>
<wgt id='1814'> +3.7607160E-01 </wgt>
<wgt id='1815'> +3.6024779E-01 </wgt>
<wgt id='1816'> +4.6099236E-01 </wgt>
<wgt id='1817'> +4.7890108E-01 </wgt>
<wgt id='1818'> +4.6759697E-01 </wgt>
<wgt id='1819'> +4.7175489E-01 </wgt>
<wgt id='1820'> +4.4321002E-01 </wgt>
<wgt id='1821'> +4.7145267E-01 </wgt>
<wgt id='1822'> +4.7361635E-01 </wgt>
<wgt id='1823'> +4.5995347E-01 </wgt>
<wgt id='1824'> +4.6796772E-01 </wgt>
<wgt id='1825'> +4.6741135E-01 </wgt>
<wgt id='1826'> +4.5042727E-01 </wgt>
<wgt id='1827'> +4.2143601E-01 </wgt>
<wgt id='1828'> +4.6886049E-01 </wgt>
<wgt id='1829'> +4.5551704E-01 </wgt>
<wgt id='1830'> +4.5352040E-01 </wgt>
<wgt id='1831'> +4.7835110E-01 </wgt>
<wgt id='1832'> +4.7467776E-01 </wgt>
<wgt id='1833'> +4.7139037E-01 </wgt>
<wgt id='1834'> +4.7757073E-01 </wgt>
<wgt id='1835'> +4.6823477E-01 </wgt>
<wgt id='1836'> +4.9459114E-01 </wgt>
<wgt id='1837'> +4.5839328E-01 </wgt>
<wgt id='1838'> +4.5350925E-01 </wgt>
<wgt id='1839'> +4.7965743E-01 </wgt>
<wgt id='1840'> +4.5838157E-01 </wgt>
<wgt id='1841'> +4.5538228E-01 </wgt>
<wgt id='1842'> +4.6178527E-01 </wgt>
<wgt id='1843'> +4.6657317E-01 </wgt>
<wgt id='1844'> +4.5706536E-01 </wgt>
<wgt id='1845'> +4.8324031E-01 </wgt>
<wgt id='1846'> +4.8080460E-01 </wgt>
<wgt id='1847'> +4.5109479E-01 </wgt>
<wgt id='1848'> +4.3580895E-01 </wgt>
<wgt id='1849'> +4.4368989E-01 </wgt>
<wgt id='1850'> +4.5479868E-01 </wgt>
<wgt id='1851'> +4.5535286E-01 </wgt>
<wgt id='1852'> +4.5858550E-01 </wgt>
<wgt id='1853'> +4.7543901E-01 </wgt>
<wgt id='1854'> +4.6698659E-01 </wgt>
<wgt id='1855'> +4.6177331E-01 </wgt>
<wgt id='1856'> +4.5044855E-01 </wgt>
<wgt id='1857'> +4.6436565E-01 </wgt>
<wgt id='1858'> +4.5300238E-01 </wgt>
<wgt id='1859'> +4.4898917E-01 </wgt>
<wgt id='1860'> +4.6454044E-01 </wgt>
<wgt id='1861'> +4.5739763E-01 </wgt>
<wgt id='1862'> +4.7101588E-01 </wgt>
<wgt id='1863'> +4.6049529E-01 </wgt>
<wgt id='1864'> +4.6502881E-01 </wgt>
<wgt id='1865'> +4.6235168E-01 </wgt>
<wgt id='1866'> +4.5496955E-01 </wgt>
<wgt id='1867'> +4.5532574E-01 </wgt>
<wgt id='1868'> +4.5521123E-01 </wgt>
<wgt id='1869'> +4.6768866E-01 </wgt>
<wgt id='1870'> +4.4934785E-01 </wgt>
<wgt id='1871'> +4.4593429E-01 </wgt>
<wgt id='1872'> +4.6882982E-01 </wgt>
<wgt id='1873'> +4.6365654E-01 </wgt>
<wgt id='1874'> +4.5154384E-01 </wgt>
<wgt id='1875'> +4.8389287E-01 </wgt>
<wgt id='1876'> +4.5995053E-01 </wgt>
<wgt id='1877'> +4.6141739E-01 </wgt>
<wgt id='1878'> +4.7507722E-01 </wgt>
<wgt id='1879'> +4.3947786E-01 </wgt>
<wgt id='1880'> +4.6624132E-01 </wgt>
<wgt id='1881'> +4.3190455E-01 </wgt>
<wgt id='1882'> +4.5732707E-01 </wgt>
<wgt id='1883'> +4.9884042E-01 </wgt>
<wgt id='1884'> +4.4905819E-01 </wgt>
<wgt id='1885'> +4.3512016E-01 </wgt>
<wgt id='1886'> +4.4378508E-01 </wgt>
<wgt id='1887'> +4.5020452E-01 </wgt>
<wgt id='1888'> +4.6638471E-01 </wgt>
<wgt id='1889'> +4.4664691E-01 </wgt>
<wgt id='1890'> +4.6270521E-01 </wgt>
<wgt id='1891'> +4.6231484E-01 </wgt>
<wgt id='1892'> +4.4114946E-01 </wgt>
<wgt id='1893'> +4.4905560E-01 </wgt>
<wgt id='1894'> +4.5872521E-01 </wgt>
<wgt id='1895'> +4.5934594E-01 </wgt>
<wgt id='1896'> +4.5358452E-01 </wgt>
<wgt id='1897'> +4.5008989E-01 </wgt>
<wgt id='1898'> +4.4543868E-01 </wgt>
<wgt id='1899'> +4.9087876E-01 </wgt>
<wgt id='1900'> +4.5978713E-01 </wgt>
<wgt id='1901'> +4.6427222E-01 </wgt>
<wgt id='1902'> +4.5651693E-01 </wgt>
<wgt id='1903'> +4.6065785E-01 </wgt>
<wgt id='1904'> +4.5838676E-01 </wgt>
<wgt id='1905'> +4.8645833E-01 </wgt>
<wgt id='1906'> +4.5204594E-01 </wgt>
<wgt id='1907'> +4.5858184E-01 </wgt>
<wgt id='1908'> +4.5446074E-01 </wgt>
<wgt id='1909'> +4.7223601E-01 </wgt>
<wgt id='1910'> +4.7275518E-01 </wgt>
<wgt id='1911'> +4.6661788E-01 </wgt>
<wgt id='1912'> +4.5404279E-01 </wgt>
<wgt id='1913'> +4.6259024E-01 </wgt>
<wgt id='1914'> +4.5331372E-01 </wgt>
<wgt id='1915'> +4.6672250E-01 </wgt>
<wgt id='1916'> +4.8278244E-01 </wgt>
<wgt id='1917'> +4.3431310E-01 </wgt>
<wgt id='1918'> +4.5309675E-01 </wgt>
<wgt id='1919'> +4.6099236E-01 </wgt>
<wgt id='1920'> +4.7890108E-01 </wgt>
<wgt id='1921'> +4.6759697E-01 </wgt>
<wgt id='1922'> +4.7175489E-01 </wgt>
<wgt id='1923'> +4.4321002E-01 </wgt>
<wgt id='1924'> +4.7145267E-01 </wgt>
<wgt id='1925'> +4.7361635E-01 </wgt>
<wgt id='1926'> +4.5995347E-01 </wgt>
<wgt id='1927'> +4.6796772E-01 </wgt>
<wgt id='1928'> +4.6741135E-01 </wgt>
<wgt id='1929'> +4.5042727E-01 </wgt>
<wgt id='1930'> +4.2143601E-01 </wgt>
<wgt id='1931'> +4.6886049E-01 </wgt>
<wgt id='1932'> +4.5551704E-01 </wgt>
<wgt id='1933'> +4.5352040E-01 </wgt>
<wgt id='1934'> +4.7835110E-01 </wgt>
<wgt id='1935'> +4.7467776E-01 </wgt>
<wgt id='1936'> +4.7139037E-01 </wgt>
<wgt id='1937'> +4.7757073E-01 </wgt>
<wgt id='1938'> +4.6823477E-01 </wgt>
<wgt id='1939'> +4.9459114E-01 </wgt>
<wgt id='1940'> +4.5839328E-01 </wgt>
<wgt id='1941'> +4.5350925E-01 </wgt>
<wgt id='1942'> +4.7965743E-01 </wgt>
<wgt id='1943'> +4.5838157E-01 </wgt>
<wgt id='1944'> +4.5538228E-01 </wgt>
<wgt id='1945'> +4.6178527E-01 </wgt>
<wgt id='1946'> +4.6657317E-01 </wgt>
<wgt id='1947'> +4.5706536E-01 </wgt>
<wgt id='1948'> +4.8324031E-01 </wgt>
<wgt id='1949'> +4.8080460E-01 </wgt>
<wgt id='1950'> +4.5109479E-01 </wgt>
<wgt id='1951'> +4.3580895E-01 </wgt>
<wgt id='1952'> +4.4368989E-01 </wgt>
<wgt id='1953'> +4.5479868E-01 </wgt>
<wgt id='1954'> +4.5535286E-01 </wgt>
<wgt id='1955'> +4.5858550E-01 </wgt>
<wgt id='1956'> +4.7543901E-01 </wgt>
<wgt id='1957'> +4.6698659E-01 </wgt>
<wgt id='1958'> +4.6177331E-01 </wgt>
<wgt id='1959'> +4.5044855E-01 </wgt>
<wgt id='1960'> +4.6436565E-01 </wgt>
<wgt id='1961'> +4.5300238E-01 </wgt>
<wgt id='1962'> +4.4898917E-01 </wgt>
<wgt id='1963'> +4.6454044E-01 </wgt>
<wgt id='1964'> +4.5739763E-01 </wgt>
<wgt id='1965'> +4.7101588E-01 </wgt>
<wgt id='1966'> +4.6049529E-01 </wgt>
<wgt id='1967'> +4.6502881E-01 </wgt>
<wgt id='1968'> +4.6235168E-01 </wgt>
<wgt id='1969'> +4.5496955E-01 </wgt>
<wgt id='1970'> +4.5532574E-01 </wgt>
<wgt id='1971'> +4.5521123E-01 </wgt>
<wgt id='1972'> +4.6768866E-01 </wgt>
<wgt id='1973'> +4.4934785E-01 </wgt>
<wgt id='1974'> +4.4593429E-01 </wgt>
<wgt id='1975'> +4.6882982E-01 </wgt>
<wgt id='1976'> +4.6365654E-01 </wgt>
<wgt id='1977'> +4.5154384E-01 </wgt>
<wgt id='1978'> +4.8389287E-01 </wgt>
<wgt id='1979'> +4.5995053E-01 </wgt>
<wgt id='1980'> +4.6141739E-01 </wgt>
<wgt id='1981'> +4.7507722E-01 </wgt>
<wgt id='1982'> +4.3947786E-01 </wgt>
<wgt id='1983'> +4.6624132E-01 </wgt>
<wgt id='1984'> +4.3190455E-01 </wgt>
<wgt id='1985'> +4.5732707E-01 </wgt>
<wgt id='1986'> +4.9884042E-01 </wgt>
<wgt id='1987'> +4.4905819E-01 </wgt>
<wgt id='1988'> +4.3512016E-01 </wgt>
<wgt id='1989'> +4.4378508E-01 </wgt>
<wgt id='1990'> +4.5020452E-01 </wgt>
<wgt id='1991'> +4.6638471E-01 </wgt>
<wgt id='1992'> +4.4664691E-01 </wgt>
<wgt id='1993'> +4.6270521E-01 </wgt>
<wgt id='1994'> +4.6231484E-01 </wgt>
<wgt id='1995'> +4.4114946E-01 </wgt>
<wgt id='1996'> +4.4905560E-01 </wgt>
<wgt id='1997'> +4.5872521E-01 </wgt>
<wgt id='1998'> +4.5934594E-01 </wgt>
<wgt id='1999'> +4.5358452E-01 </wgt>
<wgt id='2000'> +4.5008989E-01 </wgt>
<wgt id='2001'> +4.4543868E-01 </wgt>
<wgt id='2002'> +4.9087876E-01 </wgt>
<wgt id='2003'> +4.5978713E-01 </wgt>
<wgt id='2004'> +4.6427222E-01 </wgt>
<wgt id='2005'> +4.5651693E-01 </wgt>
<wgt id='2006'> +4.6065785E-01 </wgt>
<wgt id='2007'> +4.5838676E-01 </wgt>
<wgt id='2008'> +4.8645833E-01 </wgt>
<wgt id='2009'> +4.5204594E-01 </wgt>
<wgt id='2010'> +4.5858184E-01 </wgt>
<wgt id='2011'> +4.5446074E-01 </wgt>
<wgt id='2012'> +4.7223601E-01 </wgt>
<wgt id='2013'> +4.7275518E-01 </wgt>
<wgt id='2014'> +4.6661788E-01 </wgt>
<wgt id='2015'> +4.5404279E-01 </wgt>
<wgt id='2016'> +4.6259024E-01 </wgt>
<wgt id='2017'> +4.5331372E-01 </wgt>
<wgt id='2018'> +4.6672250E-01 </wgt>
<wgt id='2019'> +4.8278244E-01 </wgt>
<wgt id='2020'> +4.5328450E-01 </wgt>
<wgt id='2021'> +4.6730449E-01 </wgt>
<wgt id='2022'> +4.8396728E-01 </wgt>
</rwgt>
</event>
<event>
13      1 +3.9556008E-01 1.78120600e+02 7.81860800e-03 1.10728300e-01
       21 -1    0    0  502  503 +0.0000000000e+00 +0.0000000000e+00 +5.6127112659e+02 5.6127112659e+02 0.0000000000e+00 0.0000e+00 -1.0000e+00
       -1 -1    0    0    0  501 +0.0000000000e+00 +0.0000000000e+00 -4.8359308570e+02 4.8359308572e+02 5.0400000000e-03 0.0000e+00 1.0000e+00
  8000001  2    1    2  502    0 -5.6856712807e+01 +8.8436537538e+01 +3.4405687426e+02 6.9959597203e+02 6.0000473697e+02 0.0000e+00 0.0000e+00
       -2  1    1    2    0  501 +4.4126522529e+01 -3.7582473750e+01 -2.8393173854e+02 2.8978755059e+02 2.5500000000e-03 0.0000e+00 1.0000e+00
       -5  1    1    2    0  503 +1.2730190278e+01 -5.0854063788e+01 +1.7552905160e+01 5.5480689690e+01 4.6700000000e+00 0.0000e+00 1.0000e+00
        6  2    3    3  502    0 -1.4946557497e+02 -1.8113758334e+02 +2.5613705542e+02 3.8790244937e+02 1.7236976784e+02 0.0000e+00 0.0000e+00
        5  1    6    6  502    0 +8.0995687523e+00 -9.1471622475e+01 +8.3459943122e+01 1.2417742041e+02 4.6700000000e+00 0.0000e+00 -1.0000e+00
       24  2    6    6    0    0 -1.5756514372e+02 -8.9665960869e+01 +1.7267711230e+02 2.6372502896e+02 8.2865835746e+01 0.0000e+00 0.0000e+00
       12  1    8    8    0    0 -1.6340553486e+02 -6.8693128484e+01 +1.5814243112e+02 2.3754819141e+02 0.0000000000e+00 0.0000e+00 -1.0000e+00
      -11  1    8    8    0    0 +5.8403911343e+00 -2.0972832385e+01 +1.4534681182e+01 2.6176837551e+01 5.1100000000e-04 0.0000e+00 1.0000e+00
       23  2    3    3    0    0 +9.2608862161e+01 +2.6957412088e+02 +8.7919818845e+01 3.1169352266e+02 9.0423169174e+01 0.0000e+00 0.0000e+00
        4  1   11   11  504    0 -1.1883867180e+01 +7.7589969182e+01 +3.9197978069e+01 8.7746931578e+01 1.2700000000e+00 0.0000e+00 -1.0000e+00
       -4  1   11   11    0  504 +1.0449272934e+02 +1.9198415170e+02 +4.8721840777e+01 2.2394659108e+02 1.2700000000e+00 0.0000e+00 1.0000e+00
<mgrwt>
<rscale>  1 0.10181685e+03</rscale>
<asrwt>0</asrwt>
<pdfrwt beam="1">  1       21 0.86349404e-01 0.17812061e+03</pdfrwt>
<pdfrwt beam="2">  1       -1 0.74398937e-01 0.58200292e+02</pdfrwt>
<totfact> 0.28302243e+02</totfact>
</mgrwt>
<rwgt>
<wgt id='1001'> +3.9556008E-01 </wgt>
<wgt id='1002'> +2.5175347E-01 </wgt>
<wgt id='1003'> +2.5174726E-01 </wgt>
<wgt id='1004'> +2.9589869E-01 </wgt>
<wgt id='1005'> +2.3045915E-01 </wgt>
<wgt id='1006'> +3.5718584E-01 </wgt>
<wgt id='1007'> +2.3271585E-01 </wgt>
<wgt id='1008'> +2.3271034E-01 </wgt>
<wgt id='1009'> +2.7160331E-01 </wgt>
<wgt id='1010'> +2.1378936E-01 </wgt>
<wgt id='1011'> +4.4351667E-01 </wgt>
<wgt id='1012'> +2.7427359E-01 </wgt>
<wgt id='1013'> +2.7426649E-01 </wgt>
<wgt id='1014'> +3.2511298E-01 </wgt>
<wgt id='1015'> +2.5001932E-01 </wgt>
<wgt id='1016'> +3.6495365E-01 </wgt>
<wgt id='1017'> +2.3421639E-01 </wgt>
<wgt id='1018'> +2.3421075E-01 </wgt>
<wgt id='1019'> +2.7426649E-01 </wgt>
<wgt id='1020'> +2.1489380E-01 </wgt>
<wgt id='1021'> +3.2954862E-01 </wgt>
<wgt id='1022'> +2.1650492E-01 </wgt>
<wgt id='1023'> +2.1649993E-01 </wgt>
<wgt id='1024'> +2.5174726E-01 </wgt>
<wgt id='1025'> +1.9934989E-01 </wgt>
<wgt id='1026'> +4.0919960E-01 </wgt>
<wgt id='1027'> +2.5516776E-01 </wgt>
<wgt id='1028'> +2.5516131E-01 </wgt>
<wgt id='1029'> +3.0134501E-01 </wgt>
<wgt id='1030'> +2.3313286E-01 </wgt>
<wgt id='1031'> +4.3035934E-01 </wgt>
<wgt id='1032'> +2.7161020E-01 </wgt>
<wgt id='1033'> +2.7160331E-01 </wgt>
<wgt id='1034'> +3.2055369E-01 </wgt>
<wgt id='1035'> +2.4811671E-01 </wgt>
<wgt id='1036'> +3.8860914E-01 </wgt>
<wgt id='1037'> +2.5107100E-01 </wgt>
<wgt id='1038'> +2.5106489E-01 </wgt>
<wgt id='1039'> +2.9423396E-01 </wgt>
<wgt id='1040'> +2.3016969E-01 </wgt>
<wgt id='1041'> +4.8253489E-01 </wgt>
<wgt id='1042'> +2.9590655E-01 </wgt>
<wgt id='1043'> +2.9589869E-01 </wgt>
<wgt id='1044'> +3.5220218E-01 </wgt>
<wgt id='1045'> +2.6917556E-01 </wgt>
<wgt id='1046'> +3.9556008E-01 </wgt>
<wgt id='1047'> +3.9556008E-01 </wgt>
<wgt id='1048'> +3.9556008E-01 </wgt>
<wgt id='1049'> +3.9457480E-01 </wgt>
<wgt id='1050'> +3.9539607E-01 </wgt>
<wgt id='1051'> +3.9707492E-01 </wgt>
<wgt id='1052'> +3.9789101E-01 </wgt>
<wgt id='1053'> +3.9145641E-01 </wgt>
<wgt id='1054'> +3.9572516E-01 </wgt>
<wgt id='1055'> +3.9416296E-01 </wgt>
<wgt id='1056'> +3.9166510E-01 </wgt>
<wgt id='1057'> +3.9992279E-01 </wgt>
<wgt id='1058'> +3.9577478E-01 </wgt>
<wgt id='1059'> +3.9880888E-01 </wgt>
<wgt id='1060'> +3.9499816E-01 </wgt>
<wgt id='1061'> +3.9838168E-01 </wgt>
<wgt id='1062'> +3.9376506E-01 </wgt>
<wgt id='1063'> +4.0009318E-01 </wgt>
<wgt id='1064'> +3.9687016E-01 </wgt>
<wgt id='1065'> +3.9557581E-01 </wgt>
<wgt id='1066'> +3.9202707E-01 </wgt>
<wgt id='1067'> +3.9293799E-01 </wgt>
<wgt id='1068'> +3.9454537E-01 </wgt>
<wgt id='1069'> +3.9178557E-01 </wgt>
<wgt id='1070'> +3.9741564E-01 </wgt>
<wgt id='1071'> +3.9657851E-01 </wgt>
<wgt id='1072'> +3.9005123E-01 </wgt>
<wgt id='1073'> +3.9535693E-01 </wgt>
<wgt id='1074'> +3.9539695E-01 </wgt>
<wgt id='1075'> +3.9881059E-01 </wgt>
<wgt id='1076'> +3.9346607E-01 </wgt>
<wgt id='1077'> +4.0014935E-01 </wgt>
<wgt id='1078'> +3.9872347E-01 </wgt>
<wgt id='1079'> +3.9693059E-01 </wgt>
<wgt id='1080'> +3.9228119E-01 </wgt>
<wgt id='1081'> +3.9586130E-01 </wgt>
<wgt id='1082'> +3.9592986E-01 </wgt>
<wgt id='1083'> +3.9619862E-01 </wgt>
<wgt id='1084'> +3.9602709E-01 </wgt>
<wgt id='1085'> +3.9617648E-01 </wgt>
<wgt id='1086'> +3.9693837E-01 </wgt>
<wgt id='1087'> +3.9469317E-01 </wgt>
<wgt id='1088'> +3.9491675E-01 </wgt>
<wgt id='1089'> +3.9343329E-01 </wgt>
<wgt id='1090'> +3.9411393E-01 </wgt>
<wgt id='1091'> +3.9517944E-01 </wgt>
<wgt id='1092'> +3.9618987E-01 </wgt>
<wgt id='1093'> +3.9791157E-01 </wgt>
<wgt id='1094'> +3.9652396E-01 </wgt>
<wgt id='1095'> +3.9575831E-01 </wgt>
<wgt id='1096'> +3.9657701E-01 </wgt>
<wgt id='1097'> +3.9351560E-01 </wgt>
<wgt id='1098'> +3.9581472E-01 </wgt>
<wgt id='1099'> +3.9718210E-01 </wgt>
<wgt id='1100'> +3.9407400E-01 </wgt>
<wgt id='1101'> +3.9544305E-01 </wgt>
<wgt id='1102'> +3.9538900E-01 </wgt>
<wgt id='1103'> +3.9701898E-01 </wgt>
<wgt id='1104'> +3.9575489E-01 </wgt>
<wgt id='1105'> +3.9449037E-01 </wgt>
<wgt id='1106'> +3.9538697E-01 </wgt>
<wgt id='1107'> +3.9540862E-01 </wgt>
<wgt id='1108'> +3.9688693E-01 </wgt>
<wgt id='1109'> +3.9702575E-01 </wgt>
<wgt id='1110'> +3.9560464E-01 </wgt>
<wgt id='1111'> +3.9611912E-01 </wgt>
<wgt id='1112'> +3.9575104E-01 </wgt>
<wgt id='1113'> +3.9552064E-01 </wgt>
<wgt id='1114'> +3.9902588E-01 </wgt>
<wgt id='1115'> +3.9654100E-01 </wgt>
<wgt id='1116'> +3.9473109E-01 </wgt>
<wgt id='1117'> +3.9375067E-01 </wgt>
<wgt id='1118'> +3.9537246E-01 </wgt>
<wgt id='1119'> +3.9543607E-01 </wgt>
<wgt id='1120'> +3.9479807E-01 </wgt>
<wgt id='1121'> +3.9613876E-01 </wgt>
<wgt id='1122'> +3.9491122E-01 </wgt>
<wgt id='1123'> +3.9463288E-01 </wgt>
<wgt id='1124'> +3.9592734E-01 </wgt>
<wgt id='1125'> +3.9640653E-01 </wgt>
<wgt id='1126'> +3.9602888E-01 </wgt>
<wgt id='1127'> +3.9419477E-01 </wgt>
<wgt id='1128'> +3.9525156E-01 </wgt>
<wgt id='1129'> +3.9623932E-01 </wgt>
<wgt id='1130'> +3.9700357E-01 </wgt>
<wgt id='1131'> +3.9583657E-01 </wgt>
<wgt id='1132'> +3.9541215E-01 </wgt>
<wgt id='1133'> +3.9486444E-01 </wgt>
<wgt id='1134'> +3.9639152E-01 </wgt>
<wgt id='1135'> +3.9708860E-01 </wgt>
<wgt id='1136'> +3.9555259E-01 </wgt>
<wgt id='1137'> +3.9499465E-01 </wgt>
<wgt id='1138'> +3.9528886E-01 </wgt>
<wgt id='1139'> +3.9633523E-01 </wgt>
<wgt id='1140'> +3.9509485E-01 </wgt>
<wgt id='1141'> +3.9464566E-01 </wgt>
<wgt id='1142'> +3.9532003E-01 </wgt>
<wgt id='1143'> +3.9552529E-01 </wgt>
<wgt id='1144'> +3.9481239E-01 </wgt>
<wgt id='1145'> +3.9527954E-01 </wgt>
<wgt id='1146'> +3.9541492E-01 </wgt>
<wgt id='1147'> +3.9539608E-01 </wgt>
<wgt id='1148'> +3.9556008E-01 </wgt>
<wgt id='1149'> +3.8276401E-01 </wgt>
<wgt id='1150'> +4.2545413E-01 </wgt>
<wgt id='1151'> +3.7886543E-01 </wgt>
<wgt id='1152'> +4.1091408E-01 </wgt>
<wgt id='1153'> +4.0645987E-01 </wgt>
<wgt id='1154'> +3.8017296E-01 </wgt>
<wgt id='1155'> +3.8414064E-01 </wgt>
<wgt id='1156'> +3.6996118E-01 </wgt>
<wgt id='1157'> +3.7305828E-01 </wgt>
<wgt id='1158'> +3.6114014E-01 </wgt>
<wgt id='1159'> +3.8417219E-01 </wgt>
<wgt id='1160'> +3.7555238E-01 </wgt>
<wgt id='1161'> +3.7914535E-01 </wgt>
<wgt id='1162'> +3.8607955E-01 </wgt>
<wgt id='1163'> +3.9053004E-01 </wgt>
<wgt id='1164'> +3.6245016E-01 </wgt>
<wgt id='1165'> +3.7728406E-01 </wgt>
<wgt id='1166'> +3.9720242E-01 </wgt>
<wgt id='1167'> +3.7948554E-01 </wgt>
<wgt id='1168'> +3.8935024E-01 </wgt>
<wgt id='1169'> +3.6798213E-01 </wgt>
<wgt id='1170'> +3.8351171E-01 </wgt>
<wgt id='1171'> +3.9588055E-01 </wgt>
<wgt id='1172'> +3.7354289E-01 </wgt>
<wgt id='1173'> +3.8981294E-01 </wgt>
<wgt id='1174'> +3.6296499E-01 </wgt>
<wgt id='1175'> +3.8946644E-01 </wgt>
<wgt id='1176'> +4.1299411E-01 </wgt>
<wgt id='1177'> +3.8798015E-01 </wgt>
<wgt id='1178'> +3.7226759E-01 </wgt>
<wgt id='1179'> +3.7469238E-01 </wgt>
<wgt id='1180'> +3.9440064E-01 </wgt>
<wgt id='1181'> +3.7587278E-01 </wgt>
<wgt id='1182'> +4.1104035E-01 </wgt>
<wgt id='1183'> +3.8926396E-01 </wgt>
<wgt id='1184'> +3.8501172E-01 </wgt>
<wgt id='1185'> +3.8232325E-01 </wgt>
<wgt id='1186'> +3.7468833E-01 </wgt>
<wgt id='1187'> +3.7931313E-01 </wgt>
<wgt id='1188'> +3.7109336E-01 </wgt>
<wgt id='1189'> +3.8902390E-01 </wgt>
<wgt id='1190'> +4.0072367E-01 </wgt>
<wgt id='1191'> +3.9256627E-01 </wgt>
<wgt id='1192'> +4.2147067E-01 </wgt>
<wgt id='1193'> +3.8795668E-01 </wgt>
<wgt id='1194'> +3.8003852E-01 </wgt>
<wgt id='1195'> +3.8208021E-01 </wgt>
<wgt id='1196'> +3.9036166E-01 </wgt>
<wgt id='1197'> +3.9326643E-01 </wgt>
<wgt id='1198'> +3.6205708E-01 </wgt>
<wgt id='1199'> +3.7291417E-01 </wgt>
<wgt id='1200'> +3.8491555E-01 </wgt>
<wgt id='1201'> +3.6166516E-01 </wgt>
<wgt id='1202'> +3.8188196E-01 </wgt>
<wgt id='1203'> +3.8601561E-01 </wgt>
<wgt id='1204'> +4.1445292E-01 </wgt>
<wgt id='1205'> +3.8455479E-01 </wgt>
<wgt id='1206'> +3.7633942E-01 </wgt>
<wgt id='1207'> +3.8624731E-01 </wgt>
<wgt id='1208'> +3.5676198E-01 </wgt>
<wgt id='1209'> +3.8292767E-01 </wgt>
<wgt id='1210'> +3.7874153E-01 </wgt>
<wgt id='1211'> +3.8929927E-01 </wgt>
<wgt id='1212'> +3.9405707E-01 </wgt>
<wgt id='1213'> +3.9724619E-01 </wgt>
<wgt id='1214'> +3.8300228E-01 </wgt>
<wgt id='1215'> +3.7104278E-01 </wgt>
<wgt id='1216'> +4.0067853E-01 </wgt>
<wgt id='1217'> +3.8338940E-01 </wgt>
<wgt id='1218'> +3.6827457E-01 </wgt>
<wgt id='1219'> +3.8409893E-01 </wgt>
<wgt id='1220'> +3.8305714E-01 </wgt>
<wgt id='1221'> +3.7039857E-01 </wgt>
<wgt id='1222'> +3.4567683E-01 </wgt>
<wgt id='1223'> +3.6176286E-01 </wgt>
<wgt id='1224'> +3.7479683E-01 </wgt>
<wgt id='1225'> +4.1179077E-01 </wgt>
<wgt id='1226'> +3.7901537E-01 </wgt>
<wgt id='1227'> +3.5766387E-01 </wgt>
<wgt id='1228'> +3.7793358E-01 </wgt>
<wgt id='1229'> +4.1641381E-01 </wgt>
<wgt id='1230'> +3.9687219E-01 </wgt>
<wgt id='1231'> +3.7728406E-01 </wgt>
<wgt id='1232'> +3.7273869E-01 </wgt>
<wgt id='1233'> +3.8066594E-01 </wgt>
<wgt id='1234'> +3.6220877E-01 </wgt>
<wgt id='1235'> +4.0870422E-01 </wgt>
<wgt id='1236'> +3.6595224E-01 </wgt>
<wgt id='1237'> +3.9991949E-01 </wgt>
<wgt id='1238'> +3.3317812E-01 </wgt>
<wgt id='1239'> +3.7692066E-01 </wgt>
<wgt id='1240'> +3.8068270E-01 </wgt>
<wgt id='1241'> +3.3565092E-01 </wgt>
<wgt id='1242'> +3.7290732E-01 </wgt>
<wgt id='1243'> +3.7480609E-01 </wgt>
<wgt id='1244'> +3.8259511E-01 </wgt>
<wgt id='1245'> +3.7733872E-01 </wgt>
<wgt id='1246'> +4.1650204E-01 </wgt>
<wgt id='1247'> +4.0110320E-01 </wgt>
<wgt id='1248'> +3.8556963E-01 </wgt>
<wgt id='1249'> +3.7457648E-01 </wgt>
<wgt id='1250'> +3.6605028E-01 </wgt>
<wgt id='1251'> +3.6187580E-01 </wgt>
<wgt id='1252'> +3.7457302E-01 </wgt>
<wgt id='1253'> +3.8102628E-01 </wgt>
<wgt id='1254'> +4.0001447E-01 </wgt>
<wgt id='1255'> +4.4179067E-01 </wgt>
<wgt id='1256'> +4.4068909E-01 </wgt>
<wgt id='1257'> +4.4246301E-01 </wgt>
<wgt id='1258'> +4.4438955E-01 </wgt>
<wgt id='1259'> +4.4047162E-01 </wgt>
<wgt id='1260'> +4.4409300E-01 </wgt>
<wgt id='1261'> +4.3872612E-01 </wgt>
<wgt id='1262'> +4.4336615E-01 </wgt>
<wgt id='1263'> +4.4080937E-01 </wgt>
<wgt id='1264'> +4.4084805E-01 </wgt>
<wgt id='1265'> +4.4244265E-01 </wgt>
<wgt id='1266'> +4.4238178E-01 </wgt>
<wgt id='1267'> +4.4122932E-01 </wgt>
<wgt id='1268'> +4.4620057E-01 </wgt>
<wgt id='1269'> +4.3747969E-01 </wgt>
<wgt id='1270'> +4.3325355E-01 </wgt>
<wgt id='1271'> +4.5154940E-01 </wgt>
<wgt id='1272'> +4.3736289E-01 </wgt>
<wgt id='1273'> +4.4514155E-01 </wgt>
<wgt id='1274'> +4.4285394E-01 </wgt>
<wgt id='1275'> +4.4006674E-01 </wgt>
<wgt id='1276'> +4.4355187E-01 </wgt>
<wgt id='1277'> +4.3933630E-01 </wgt>
<wgt id='1278'> +4.4847383E-01 </wgt>
<wgt id='1279'> +4.3620252E-01 </wgt>
<wgt id='1280'> +4.4085531E-01 </wgt>
<wgt id='1281'> +4.4520881E-01 </wgt>
<wgt id='1282'> +4.4335694E-01 </wgt>
<wgt id='1283'> +4.3896100E-01 </wgt>
<wgt id='1284'> +4.4112771E-01 </wgt>
<wgt id='1285'> +4.4253234E-01 </wgt>
<wgt id='1286'> +4.4165570E-01 </wgt>
<wgt id='1287'> +4.4192060E-01 </wgt>
<wgt id='1288'> +4.4526799E-01 </wgt>
<wgt id='1289'> +4.4029765E-01 </wgt>
<wgt id='1290'> +4.4093567E-01 </wgt>
<wgt id='1291'> +4.4210436E-01 </wgt>
<wgt id='1292'> +4.4610804E-01 </wgt>
<wgt id='1293'> +4.3667365E-01 </wgt>
<wgt id='1294'> +4.3823092E-01 </wgt>
<wgt id='1295'> +4.4238519E-01 </wgt>
<wgt id='1296'> +4.1769138E-01 </wgt>
<wgt id='1297'> +4.1901172E-01 </wgt>
<wgt id='1298'> +4.1657390E-01 </wgt>
<wgt id='1299'> +4.2035921E-01 </wgt>
<wgt id='1300'> +4.1467106E-01 </wgt>
<wgt id='1301'> +4.1636171E-01 </wgt>
<wgt id='1302'> +4.1964038E-01 </wgt>
<wgt id='1303'> +4.2214618E-01 </wgt>
<wgt id='1304'> +4.1469425E-01 </wgt>
<wgt id='1305'> +4.1871019E-01 </wgt>
<wgt id='1306'> +4.1620948E-01 </wgt>
<wgt id='1307'> +4.2276544E-01 </wgt>
<wgt id='1308'> +4.1452025E-01 </wgt>
<wgt id='1309'> +4.1793349E-01 </wgt>
<wgt id='1310'> +4.1731852E-01 </wgt>
<wgt id='1311'> +4.1889988E-01 </wgt>
<wgt id='1312'> +4.1723957E-01 </wgt>
<wgt id='1313'> +4.1356017E-01 </wgt>
<wgt id='1314'> +4.2274697E-01 </wgt>
<wgt id='1315'> +4.2039755E-01 </wgt>
<wgt id='1316'> +4.1503881E-01 </wgt>
<wgt id='1317'> +4.2214497E-01 </wgt>
<wgt id='1318'> +4.0992532E-01 </wgt>
<wgt id='1319'> +4.1426804E-01 </wgt>
<wgt id='1320'> +4.1914729E-01 </wgt>
<wgt id='1321'> +4.2227446E-01 </wgt>
<wgt id='1322'> +4.1559125E-01 </wgt>
<wgt id='1323'> +4.1504599E-01 </wgt>
<wgt id='1324'> +4.2030926E-01 </wgt>
<wgt id='1325'> +4.1688096E-01 </wgt>
<wgt id='1326'> +4.1699607E-01 </wgt>
<wgt id='1327'> +4.1838662E-01 </wgt>
<wgt id='1328'> +4.1745212E-01 </wgt>
<wgt id='1329'> +4.1838483E-01 </wgt>
<wgt id='1330'> +4.1744251E-01 </wgt>
<wgt id='1331'> +4.1815911E-01 </wgt>
<wgt id='1332'> +4.1751380E-01 </wgt>
<wgt id='1333'> +4.2200071E-01 </wgt>
<wgt id='1334'> +4.1548348E-01 </wgt>
<wgt id='1335'> +4.1662483E-01 </wgt>
<wgt id='1336'> +4.1796821E-01 </wgt>
<wgt id='1337'> +4.1769138E-01 </wgt>
<wgt id='1338'> +4.1800368E-01 </wgt>
<wgt id='1339'> +4.1786072E-01 </wgt>
<wgt id='1340'> +4.1770471E-01 </wgt>
<wgt id='1341'> +4.1747572E-01 </wgt>
<wgt id='1342'> +4.1732971E-01 </wgt>
<wgt id='1343'> +4.1722685E-01 </wgt>
<wgt id='1344'> +3.9461707E-01 </wgt>
<wgt id='1345'> +3.9601323E-01 </wgt>
<wgt id='1346'> +3.9320364E-01 </wgt>
<wgt id='1347'> +3.9336019E-01 </wgt>
<wgt id='1348'> +3.9553511E-01 </wgt>
<wgt id='1349'> +3.9762759E-01 </wgt>
<wgt id='1350'> +3.9205973E-01 </wgt>
<wgt id='1351'> +3.9465896E-01 </wgt>
<wgt id='1352'> +3.9453301E-01 </wgt>
<wgt id='1353'> +3.9835529E-01 </wgt>
<wgt id='1354'> +3.9198060E-01 </wgt>
<wgt id='1355'> +3.9379069E-01 </wgt>
<wgt id='1356'> +3.9524635E-01 </wgt>
<wgt id='1357'> +3.9792085E-01 </wgt>
<wgt id='1358'> +3.9262352E-01 </wgt>
<wgt id='1359'> +3.9371942E-01 </wgt>
<wgt id='1360'> +3.9693575E-01 </wgt>
<wgt id='1361'> +3.8926762E-01 </wgt>
<wgt id='1362'> +3.9959170E-01 </wgt>
<wgt id='1363'> +3.9206004E-01 </wgt>
<wgt id='1364'> +3.9772738E-01 </wgt>
<wgt id='1365'> +3.9431428E-01 </wgt>
<wgt id='1366'> +3.9425256E-01 </wgt>
<wgt id='1367'> +3.9803135E-01 </wgt>
<wgt id='1368'> +3.9296417E-01 </wgt>
<wgt id='1369'> +3.9798245E-01 </wgt>
<wgt id='1370'> +3.9092649E-01 </wgt>
<wgt id='1371'> +3.9669099E-01 </wgt>
<wgt id='1372'> +3.9157285E-01 </wgt>
<wgt id='1373'> +3.9676709E-01 </wgt>
<wgt id='1374'> +3.9458399E-01 </wgt>
<wgt id='1375'> +3.9572114E-01 </wgt>
<wgt id='1376'> +3.9436335E-01 </wgt>
<wgt id='1377'> +3.9481051E-01 </wgt>
<wgt id='1378'> +3.9474428E-01 </wgt>
<wgt id='1379'> +3.9430147E-01 </wgt>
<wgt id='1380'> +3.9503630E-01 </wgt>
<wgt id='1381'> +3.9128805E-01 </wgt>
<wgt id='1382'> +3.9788472E-01 </wgt>
<wgt id='1383'> +3.9427298E-01 </wgt>
<wgt id='1384'> +3.9631380E-01 </wgt>
<wgt id='1385'> +3.9461707E-01 </wgt>
<wgt id='1386'> +3.9517150E-01 </wgt>
<wgt id='1387'> +3.9491399E-01 </wgt>
<wgt id='1388'> +3.9471322E-01 </wgt>
<wgt id='1389'> +3.9435041E-01 </wgt>
<wgt id='1390'> +3.9416641E-01 </wgt>
<wgt id='1391'> +3.9400440E-01 </wgt>
<wgt id='1392'> +4.3018669E-01 </wgt>
<wgt id='1393'> +4.2863291E-01 </wgt>
<wgt id='1394'> +4.3187126E-01 </wgt>
<wgt id='1395'> +4.3096409E-01 </wgt>
<wgt id='1396'> +4.2968612E-01 </wgt>
<wgt id='1397'> +4.3013079E-01 </wgt>
<wgt id='1398'> +4.3028850E-01 </wgt>
<wgt id='1399'> +4.2932511E-01 </wgt>
<wgt id='1400'> +4.3130839E-01 </wgt>
<wgt id='1401'> +4.2773185E-01 </wgt>
<wgt id='1402'> +4.3330951E-01 </wgt>
<wgt id='1403'> +4.2919465E-01 </wgt>
<wgt id='1404'> +4.3218938E-01 </wgt>
<wgt id='1405'> +4.3222568E-01 </wgt>
<wgt id='1406'> +4.2743681E-01 </wgt>
<wgt id='1407'> +4.2633867E-01 </wgt>
<wgt id='1408'> +4.3286446E-01 </wgt>
<wgt id='1409'> +4.3084230E-01 </wgt>
<wgt id='1410'> +4.2947521E-01 </wgt>
<wgt id='1411'> +4.2437073E-01 </wgt>
<wgt id='1412'> +4.3465451E-01 </wgt>
<wgt id='1413'> +4.2828343E-01 </wgt>
<wgt id='1414'> +4.3227293E-01 </wgt>
<wgt id='1415'> +4.2642597E-01 </wgt>
<wgt id='1416'> +4.3397744E-01 </wgt>
<wgt id='1417'> +4.2879987E-01 </wgt>
<wgt id='1418'> +4.3193485E-01 </wgt>
<wgt id='1419'> +4.2951625E-01 </wgt>
<wgt id='1420'> +4.3062772E-01 </wgt>
<wgt id='1421'> +4.2396501E-01 </wgt>
<wgt id='1422'> +4.3738923E-01 </wgt>
<wgt id='1423'> +4.3330826E-01 </wgt>
<wgt id='1424'> +4.2806167E-01 </wgt>
<wgt id='1425'> +4.2880808E-01 </wgt>
<wgt id='1426'> +4.3133079E-01 </wgt>
<wgt id='1427'> +4.3104819E-01 </wgt>
<wgt id='1428'> +4.2823049E-01 </wgt>
<wgt id='1429'> +4.2929889E-01 </wgt>
<wgt id='1430'> +4.3097375E-01 </wgt>
<wgt id='1431'> +4.2789155E-01 </wgt>
<wgt id='1432'> +4.3224248E-01 </wgt>
<wgt id='1433'> +4.2178613E-01 </wgt>
<wgt id='1434'> +4.4349162E-01 </wgt>
<wgt id='1435'> +4.2862305E-01 </wgt>
<wgt id='1436'> +4.3037338E-01 </wgt>
<wgt id='1437'> +4.2786992E-01 </wgt>
<wgt id='1438'> +4.3685378E-01 </wgt>
<wgt id='1439'> +4.3381252E-01 </wgt>
<wgt id='1440'> +4.2673889E-01 </wgt>
<wgt id='1441'> +4.3061007E-01 </wgt>
<wgt id='1442'> +4.2983037E-01 </wgt>
<wgt id='1443'> +4.2724824E-01 </wgt>
<wgt id='1444'> +4.2561254E-01 </wgt>
<wgt id='1445'> +4.2899145E-01 </wgt>
<wgt id='1446'> +4.2800230E-01 </wgt>
<wgt id='1447'> +4.2673027E-01 </wgt>
<wgt id='1448'> +4.2718954E-01 </wgt>
<wgt id='1449'> +4.2732510E-01 </wgt>
<wgt id='1450'> +4.2632546E-01 </wgt>
<wgt id='1451'> +4.2821755E-01 </wgt>
<wgt id='1452'> +4.2489738E-01 </wgt>
<wgt id='1453'> +4.2951826E-01 </wgt>
<wgt id='1454'> +4.2618800E-01 </wgt>
<wgt id='1455'> +4.2949768E-01 </wgt>
<wgt id='1456'> +4.2939849E-01 </wgt>
<wgt id='1457'> +4.2340644E-01 </wgt>
<wgt id='1458'> +4.2257519E-01 </wgt>
<wgt id='1459'> +4.2990677E-01 </wgt>
<wgt id='1460'> +4.2650612E-01 </wgt>
<wgt id='1461'> +4.2812530E-01 </wgt>
<wgt id='1462'> +4.2188026E-01 </wgt>
<wgt id='1463'> +4.3182257E-01 </wgt>
<wgt id='1464'> +4.2554805E-01 </wgt>
<wgt id='1465'> +4.2942259E-01 </wgt>
<wgt id='1466'> +4.2203440E-01 </wgt>
<wgt id='1467'> +4.3065725E-01 </wgt>
<wgt id='1468'> +4.3000334E-01 </wgt>
<wgt id='1469'> +4.2454084E-01 </wgt>
<wgt id='1470'> +4.2667447E-01 </wgt>
<wgt id='1471'> +4.2755223E-01 </wgt>
<wgt id='1472'> +4.2153942E-01 </wgt>
<wgt id='1473'> +4.3392924E-01 </wgt>
<wgt id='1474'> +4.2863885E-01 </wgt>
<wgt id='1475'> +4.2550497E-01 </wgt>
<wgt id='1476'> +4.2474172E-01 </wgt>
<wgt id='1477'> +4.2883588E-01 </wgt>
<wgt id='1478'> +4.2803031E-01 </wgt>
<wgt id='1479'> +4.2516968E-01 </wgt>
<wgt id='1480'> +4.2633139E-01 </wgt>
<wgt id='1481'> +4.2796467E-01 </wgt>
<wgt id='1482'> +4.2492716E-01 </wgt>
<wgt id='1483'> +4.2953264E-01 </wgt>
<wgt id='1484'> +4.1870851E-01 </wgt>
<wgt id='1485'> +4.3983399E-01 </wgt>
<wgt id='1486'> +4.2785656E-01 </wgt>
<wgt id='1487'> +4.2665766E-01 </wgt>
<wgt id='1488'> +4.2458728E-01 </wgt>
<wgt id='1489'> +4.3433027E-01 </wgt>
<wgt id='1490'> +4.3103570E-01 </wgt>
<wgt id='1491'> +4.2420226E-01 </wgt>
<wgt id='1492'> +4.2771694E-01 </wgt>
<wgt id='1493'> +4.2686732E-01 </wgt>
<wgt id='1494'> +4.1101741E-01 </wgt>
<wgt id='1495'> +4.0690809E-01 </wgt>
<wgt id='1496'> +4.0857301E-01 </wgt>
<wgt id='1497'> +4.0978694E-01 </wgt>
<wgt id='1498'> +4.1284158E-01 </wgt>
<wgt id='1499'> +4.1123201E-01 </wgt>
<wgt id='1500'> +4.0618671E-01 </wgt>
<wgt id='1501'> +4.0768014E-01 </wgt>
<wgt id='1502'> +4.0909848E-01 </wgt>
<wgt id='1503'> +4.1005500E-01 </wgt>
<wgt id='1504'> +4.1072726E-01 </wgt>
<wgt id='1505'> +4.1169861E-01 </wgt>
<wgt id='1506'> +4.1200241E-01 </wgt>
<wgt id='1507'> +4.1218394E-01 </wgt>
<wgt id='1508'> +4.1123201E-01 </wgt>
<wgt id='1509'> +4.1191375E-01 </wgt>
<wgt id='1510'> +4.1157136E-01 </wgt>
<wgt id='1511'> +4.1095541E-01 </wgt>
<wgt id='1512'> +4.1088616E-01 </wgt>
<wgt id='1513'> +3.9828433E-01 </wgt>
<wgt id='1514'> +3.9673075E-01 </wgt>
<wgt id='1515'> +4.0033121E-01 </wgt>
<wgt id='1516'> +3.9736114E-01 </wgt>
<wgt id='1517'> +3.9924742E-01 </wgt>
<wgt id='1518'> +3.9964514E-01 </wgt>
<wgt id='1519'> +3.9776168E-01 </wgt>
<wgt id='1520'> +3.9737430E-01 </wgt>
<wgt id='1521'> +3.9922430E-01 </wgt>
<wgt id='1522'> +3.9730674E-01 </wgt>
<wgt id='1523'> +3.9928062E-01 </wgt>
<wgt id='1524'> +4.0200163E-01 </wgt>
<wgt id='1525'> +3.9672365E-01 </wgt>
<wgt id='1526'> +4.0075308E-01 </wgt>
<wgt id='1527'> +3.9531308E-01 </wgt>
<wgt id='1528'> +3.9928410E-01 </wgt>
<wgt id='1529'> +3.9722999E-01 </wgt>
<wgt id='1530'> +3.9345214E-01 </wgt>
<wgt id='1531'> +4.0098788E-01 </wgt>
<wgt id='1532'> +4.0328716E-01 </wgt>
<wgt id='1533'> +3.9155923E-01 </wgt>
<wgt id='1534'> +3.9748537E-01 </wgt>
<wgt id='1535'> +3.9885300E-01 </wgt>
<wgt id='1536'> +3.9890395E-01 </wgt>
<wgt id='1537'> +3.9776071E-01 </wgt>
<wgt id='1538'> +3.9970316E-01 </wgt>
<wgt id='1539'> +3.9481761E-01 </wgt>
<wgt id='1540'> +3.9823951E-01 </wgt>
<wgt id='1541'> +3.9791820E-01 </wgt>
<wgt id='1542'> +4.0013356E-01 </wgt>
<wgt id='1543'> +3.9378734E-01 </wgt>
<wgt id='1544'> +4.0144706E-01 </wgt>
<wgt id='1545'> +3.9201739E-01 </wgt>
<wgt id='1546'> +3.9889760E-01 </wgt>
<wgt id='1547'> +3.9596041E-01 </wgt>
<wgt id='1548'> +3.9683941E-01 </wgt>
<wgt id='1549'> +3.9882558E-01 </wgt>
<wgt id='1550'> +3.9719776E-01 </wgt>
<wgt id='1551'> +3.9968237E-01 </wgt>
<wgt id='1552'> +3.9574093E-01 </wgt>
<wgt id='1553'> +3.9990859E-01 </wgt>
<wgt id='1554'> +4.0501963E-01 </wgt>
<wgt id='1555'> +3.8826427E-01 </wgt>
<wgt id='1556'> +3.9862992E-01 </wgt>
<wgt id='1557'> +3.9713299E-01 </wgt>
<wgt id='1558'> +3.9455655E-01 </wgt>
<wgt id='1559'> +4.0220564E-01 </wgt>
<wgt id='1560'> +4.0524411E-01 </wgt>
<wgt id='1561'> +3.9526459E-01 </wgt>
<wgt id='1562'> +3.9606804E-01 </wgt>
<wgt id='1563'> +3.9944508E-01 </wgt>
<wgt id='1564'> +3.9828433E-01 </wgt>
<wgt id='1565'> +3.9665860E-01 </wgt>
<wgt id='1566'> +4.0029858E-01 </wgt>
<wgt id='1567'> +3.9827098E-01 </wgt>
<wgt id='1568'> +3.9373432E-01 </wgt>
<wgt id='1569'> +3.9543736E-01 </wgt>
<wgt id='1570'> +3.9646161E-01 </wgt>
<wgt id='1571'> +3.9676703E-01 </wgt>
<wgt id='1572'> +3.9786889E-01 </wgt>
<wgt id='1573'> +3.9822038E-01 </wgt>
<wgt id='1574'> +3.9759915E-01 </wgt>
<wgt id='1575'> +3.9762741E-01 </wgt>
<wgt id='1576'> +3.9827098E-01 </wgt>
<wgt id='1577'> +3.9882305E-01 </wgt>
<wgt id='1578'> +3.9836231E-01 </wgt>
<wgt id='1579'> +3.9804522E-01 </wgt>
<wgt id='1580'> +3.9791065E-01 </wgt>
<wgt id='1581'> +3.9534527E-01 </wgt>
<wgt id='1582'> +3.9560776E-01 </wgt>
<wgt id='1583'> +4.0008715E-01 </wgt>
<wgt id='1584'> +3.9478943E-01 </wgt>
<wgt id='1585'> +3.9546239E-01 </wgt>
<wgt id='1586'> +3.9258002E-01 </wgt>
<wgt id='1587'> +3.9900135E-01 </wgt>
<wgt id='1588'> +3.9446873E-01 </wgt>
<wgt id='1589'> +3.9596225E-01 </wgt>
<wgt id='1590'> +3.7930422E-01 </wgt>
<wgt id='1591'> +3.9500691E-01 </wgt>
<wgt id='1592'> +3.8938778E-01 </wgt>
<wgt id='1593'> +3.9492384E-01 </wgt>
<wgt id='1594'> +3.9195966E-01 </wgt>
<wgt id='1595'> +3.9502011E-01 </wgt>
<wgt id='1596'> +3.9773981E-01 </wgt>
<wgt id='1597'> +3.9644596E-01 </wgt>
<wgt id='1598'> +3.9851223E-01 </wgt>
<wgt id='1599'> +3.9511024E-01 </wgt>
<wgt id='1600'> +3.9345228E-01 </wgt>
<wgt id='1601'> +3.9391360E-01 </wgt>
<wgt id='1602'> +3.9521449E-01 </wgt>
<wgt id='1603'> +3.9478759E-01 </wgt>
<wgt id='1604'> +3.9460896E-01 </wgt>
<wgt id='1605'> +3.9575941E-01 </wgt>
<wgt id='1606'> +3.9527033E-01 </wgt>
<wgt id='1607'> +3.9383640E-01 </wgt>
<wgt id='1608'> +3.9378725E-01 </wgt>
<wgt id='1609'> +3.9490985E-01 </wgt>
<wgt id='1610'> +3.9433509E-01 </wgt>
<wgt id='1611'> +3.9801048E-01 </wgt>
<wgt id='1612'> +3.9284941E-01 </wgt>
<wgt id='1613'> +3.9227014E-01 </wgt>
<wgt id='1614'> +3.9411930E-01 </wgt>
<wgt id='1615'> +3.9250140E-01 </wgt>
<wgt id='1616'> +3.9447656E-01 </wgt>
<wgt id='1617'> +3.9388612E-01 </wgt>
<wgt id='1618'> +3.9284745E-01 </wgt>
<wgt id='1619'> +3.9433400E-01 </wgt>
<wgt id='1620'> +3.9485279E-01 </wgt>
<wgt id='1621'> +3.9653895E-01 </wgt>
<wgt id='1622'> +3.9138686E-01 </wgt>
<wgt id='1623'> +3.9251626E-01 </wgt>
<wgt id='1624'> +3.9285471E-01 </wgt>
<wgt id='1625'> +3.9031119E-01 </wgt>
<wgt id='1626'> +3.9399454E-01 </wgt>
<wgt id='1627'> +3.9081709E-01 </wgt>
<wgt id='1628'> +3.9491796E-01 </wgt>
<wgt id='1629'> +3.9174048E-01 </wgt>
<wgt id='1630'> +3.9042912E-01 </wgt>
<wgt id='1631'> +3.9527863E-01 </wgt>
<wgt id='1632'> +3.9112625E-01 </wgt>
<wgt id='1633'> +3.9532558E-01 </wgt>
<wgt id='1634'> +3.9105698E-01 </wgt>
<wgt id='1635'> +3.9154391E-01 </wgt>
<wgt id='1636'> +3.8965662E-01 </wgt>
<wgt id='1637'> +3.9185227E-01 </wgt>
<wgt id='1638'> +3.8893674E-01 </wgt>
<wgt id='1639'> +3.9064471E-01 </wgt>
<wgt id='1640'> +3.9295742E-01 </wgt>
<wgt id='1641'> +3.9584616E-01 </wgt>
<wgt id='1642'> +3.9062734E-01 </wgt>
<wgt id='1643'> +3.9497243E-01 </wgt>
<wgt id='1644'> +3.9506220E-01 </wgt>
<wgt id='1645'> +3.9488052E-01 </wgt>
<wgt id='1646'> +3.9136050E-01 </wgt>
<wgt id='1647'> +3.9881544E-01 </wgt>
<wgt id='1648'> +3.9475624E-01 </wgt>
<wgt id='1649'> +3.8894371E-01 </wgt>
<wgt id='1650'> +3.9469612E-01 </wgt>
<wgt id='1651'> +3.9090303E-01 </wgt>
<wgt id='1652'> +3.9271987E-01 </wgt>
<wgt id='1653'> +3.9301566E-01 </wgt>
<wgt id='1654'> +3.9429749E-01 </wgt>
<wgt id='1655'> +3.9158329E-01 </wgt>
<wgt id='1656'> +3.9502040E-01 </wgt>
<wgt id='1657'> +3.9047999E-01 </wgt>
<wgt id='1658'> +3.9292337E-01 </wgt>
<wgt id='1659'> +3.9249012E-01 </wgt>
<wgt id='1660'> +3.9322856E-01 </wgt>
<wgt id='1661'> +3.9344453E-01 </wgt>
<wgt id='1662'> +3.9270570E-01 </wgt>
<wgt id='1663'> +3.9398914E-01 </wgt>
<wgt id='1664'> +3.9044268E-01 </wgt>
<wgt id='1665'> +3.9243705E-01 </wgt>
<wgt id='1666'> +3.9346716E-01 </wgt>
<wgt id='1667'> +3.9383106E-01 </wgt>
<wgt id='1668'> +3.9462100E-01 </wgt>
<wgt id='1669'> +3.9247266E-01 </wgt>
<wgt id='1670'> +3.9520593E-01 </wgt>
<wgt id='1671'> +3.9174644E-01 </wgt>
<wgt id='1672'> +3.9137112E-01 </wgt>
<wgt id='1673'> +3.9219563E-01 </wgt>
<wgt id='1674'> +3.9288813E-01 </wgt>
<wgt id='1675'> +3.9256867E-01 </wgt>
<wgt id='1676'> +3.9226872E-01 </wgt>
<wgt id='1677'> +3.9362549E-01 </wgt>
<wgt id='1678'> +3.9155085E-01 </wgt>
<wgt id='1679'> +3.9281718E-01 </wgt>
<wgt id='1680'> +3.9246167E-01 </wgt>
<wgt id='1681'> +3.9224022E-01 </wgt>
<wgt id='1682'> +3.9270999E-01 </wgt>
<wgt id='1683'> +3.9250407E-01 </wgt>
<wgt id='1684'> +3.9324764E-01 </wgt>
<wgt id='1685'> +3.9413186E-01 </wgt>
<wgt id='1686'> +3.9212484E-01 </wgt>
<wgt id='1687'> +3.9216434E-01 </wgt>
<wgt id='1688'> +3.9408906E-01 </wgt>
<wgt id='1689'> +3.9255139E-01 </wgt>
<wgt id='1690'> +3.9335926E-01 </wgt>
<wgt id='1691'> +3.9306302E-01 </wgt>
<wgt id='1692'> +3.9160124E-01 </wgt>
<wgt id='1693'> +3.9218217E-01 </wgt>
<wgt id='1694'> +3.9277995E-01 </wgt>
<wgt id='1695'> +3.9371823E-01 </wgt>
<wgt id='1696'> +3.9300933E-01 </wgt>
<wgt id='1697'> +3.9313463E-01 </wgt>
<wgt id='1698'> +3.9205553E-01 </wgt>
<wgt id='1699'> +3.9303968E-01 </wgt>
<wgt id='1700'> +3.9383402E-01 </wgt>
<wgt id='1701'> +3.9334838E-01 </wgt>
<wgt id='1702'> +3.9367858E-01 </wgt>
<wgt id='1703'> +3.9355536E-01 </wgt>
<wgt id='1704'> +3.9384362E-01 </wgt>
<wgt id='1705'> +3.9255659E-01 </wgt>
<wgt id='1706'> +3.9237275E-01 </wgt>
<wgt id='1707'> +3.9255245E-01 </wgt>
<wgt id='1708'> +3.9260292E-01 </wgt>
<wgt id='1709'> +3.9310663E-01 </wgt>
<wgt id='1710'> +3.9179265E-01 </wgt>
<wgt id='1711'> +3.9210110E-01 </wgt>
<wgt id='1712'> +3.9261969E-01 </wgt>
<wgt id='1713'> +3.8978730E-01 </wgt>
<wgt id='1714'> +3.9681433E-01 </wgt>
<wgt id='1715'> +4.0341554E-01 </wgt>
<wgt id='1716'> +4.3091492E-01 </wgt>
<wgt id='1717'> +4.1203180E-01 </wgt>
<wgt id='1718'> +4.0161420E-01 </wgt>
<wgt id='1719'> +3.9916678E-01 </wgt>
<wgt id='1720'> +4.0617298E-01 </wgt>
<wgt id='1721'> +4.3663757E-01 </wgt>
<wgt id='1722'> +4.3766421E-01 </wgt>
<wgt id='1723'> +3.9429075E-01 </wgt>
<wgt id='1724'> +4.0433717E-01 </wgt>
<wgt id='1725'> +3.9970148E-01 </wgt>
<wgt id='1726'> +3.9580332E-01 </wgt>
<wgt id='1727'> +4.1260882E-01 </wgt>
<wgt id='1728'> +4.0528086E-01 </wgt>
<wgt id='1729'> +4.0116693E-01 </wgt>
<wgt id='1730'> +4.0422608E-01 </wgt>
<wgt id='1731'> +4.2997226E-01 </wgt>
<wgt id='1732'> +3.8351680E-01 </wgt>
<wgt id='1733'> +3.9691980E-01 </wgt>
<wgt id='1734'> +4.1607532E-01 </wgt>
<wgt id='1735'> +4.0701894E-01 </wgt>
<wgt id='1736'> +3.9582717E-01 </wgt>
<wgt id='1737'> +4.0859946E-01 </wgt>
<wgt id='1738'> +3.8659213E-01 </wgt>
<wgt id='1739'> +4.1141833E-01 </wgt>
<wgt id='1740'> +3.9813782E-01 </wgt>
<wgt id='1741'> +4.0643688E-01 </wgt>
<wgt id='1742'> +3.8650911E-01 </wgt>
<wgt id='1743'> +4.0878550E-01 </wgt>
<wgt id='1744'> +4.0811533E-01 </wgt>
<wgt id='1745'> +3.9605765E-01 </wgt>
<wgt id='1746'> +4.1432365E-01 </wgt>
<wgt id='1747'> +3.8013416E-01 </wgt>
<wgt id='1748'> +3.9494699E-01 </wgt>
<wgt id='1749'> +3.8683184E-01 </wgt>
<wgt id='1750'> +3.9258183E-01 </wgt>
<wgt id='1751'> +4.0729902E-01 </wgt>
<wgt id='1752'> +4.2938696E-01 </wgt>
<wgt id='1753'> +4.0818349E-01 </wgt>
<wgt id='1754'> +3.8078464E-01 </wgt>
<wgt id='1755'> +4.0143467E-01 </wgt>
<wgt id='1756'> +4.3509568E-01 </wgt>
<wgt id='1757'> +4.0412817E-01 </wgt>
<wgt id='1758'> +4.0552111E-01 </wgt>
<wgt id='1759'> +4.0785737E-01 </wgt>
<wgt id='1760'> +4.1175874E-01 </wgt>
<wgt id='1761'> +3.7748520E-01 </wgt>
<wgt id='1762'> +4.1260882E-01 </wgt>
<wgt id='1763'> +4.2884225E-01 </wgt>
<wgt id='1764'> +4.0372128E-01 </wgt>
<wgt id='1765'> +4.1293552E-01 </wgt>
<wgt id='1766'> +3.8494451E-01 </wgt>
<wgt id='1767'> +4.1435689E-01 </wgt>
<wgt id='1768'> +4.0503849E-01 </wgt>
<wgt id='1769'> +4.0161976E-01 </wgt>
<wgt id='1770'> +4.0087924E-01 </wgt>
<wgt id='1771'> +4.1565743E-01 </wgt>
<wgt id='1772'> +3.8793091E-01 </wgt>
<wgt id='1773'> +4.0177382E-01 </wgt>
<wgt id='1774'> +4.1459519E-01 </wgt>
<wgt id='1775'> +4.1229644E-01 </wgt>
<wgt id='1776'> +3.8504375E-01 </wgt>
<wgt id='1777'> +3.9613927E-01 </wgt>
<wgt id='1778'> +4.0472192E-01 </wgt>
<wgt id='1779'> +4.1850177E-01 </wgt>
<wgt id='1780'> +3.9392801E-01 </wgt>
<wgt id='1781'> +3.9725476E-01 </wgt>
<wgt id='1782'> +3.7667273E-01 </wgt>
<wgt id='1783'> +4.2691067E-01 </wgt>
<wgt id='1784'> +3.8726467E-01 </wgt>
<wgt id='1785'> +4.1199525E-01 </wgt>
<wgt id='1786'> +3.8866093E-01 </wgt>
<wgt id='1787'> +4.0085000E-01 </wgt>
<wgt id='1788'> +4.1947646E-01 </wgt>
<wgt id='1789'> +4.0304289E-01 </wgt>
<wgt id='1790'> +4.0699252E-01 </wgt>
<wgt id='1791'> +3.8854363E-01 </wgt>
<wgt id='1792'> +3.8784354E-01 </wgt>
<wgt id='1793'> +3.9505579E-01 </wgt>
<wgt id='1794'> +4.1058615E-01 </wgt>
<wgt id='1795'> +3.9231753E-01 </wgt>
<wgt id='1796'> +4.1253009E-01 </wgt>
<wgt id='1797'> +4.2156305E-01 </wgt>
<wgt id='1798'> +3.9592413E-01 </wgt>
<wgt id='1799'> +3.8754364E-01 </wgt>
<wgt id='1800'> +4.0281900E-01 </wgt>
<wgt id='1801'> +4.0711283E-01 </wgt>
<wgt id='1802'> +4.0252185E-01 </wgt>
<wgt id='1803'> +3.9299800E-01 </wgt>
<wgt id='1804'> +4.0095384E-01 </wgt>
<wgt id='1805'> +4.2787730E-01 </wgt>
<wgt id='1806'> +4.0853135E-01 </wgt>
<wgt id='1807'> +4.0873041E-01 </wgt>
<wgt id='1808'> +3.7231767E-01 </wgt>
<wgt id='1809'> +4.0346580E-01 </wgt>
<wgt id='1810'> +4.2110035E-01 </wgt>
<wgt id='1811'> +3.9234082E-01 </wgt>
<wgt id='1812'> +3.8704945E-01 </wgt>
<wgt id='1813'> +3.9357842E-01 </wgt>
<wgt id='1814'> +4.0261933E-01 </wgt>
<wgt id='1815'> +3.9212167E-01 </wgt>
<wgt id='1816'> +3.9730719E-01 </wgt>
<wgt id='1817'> +3.8847925E-01 </wgt>
<wgt id='1818'> +3.9319430E-01 </wgt>
<wgt id='1819'> +4.1456079E-01 </wgt>
<wgt id='1820'> +3.8879801E-01 </wgt>
<wgt id='1821'> +4.3155461E-01 </wgt>
<wgt id='1822'> +3.8476713E-01 </wgt>
<wgt id='1823'> +3.9023620E-01 </wgt>
<wgt id='1824'> +3.9280229E-01 </wgt>
<wgt id='1825'> +4.1197155E-01 </wgt>
<wgt id='1826'> +4.1092066E-01 </wgt>
<wgt id='1827'> +3.7337328E-01 </wgt>
<wgt id='1828'> +3.9870656E-01 </wgt>
<wgt id='1829'> +3.9958195E-01 </wgt>
<wgt id='1830'> +4.0078843E-01 </wgt>
<wgt id='1831'> +4.0021903E-01 </wgt>
<wgt id='1832'> +4.3089467E-01 </wgt>
<wgt id='1833'> +4.0070833E-01 </wgt>
<wgt id='1834'> +3.9770311E-01 </wgt>
<wgt id='1835'> +3.9256415E-01 </wgt>
<wgt id='1836'> +4.2058366E-01 </wgt>
<wgt id='1837'> +4.0624606E-01 </wgt>
<wgt id='1838'> +3.9326016E-01 </wgt>
<wgt id='1839'> +4.1756516E-01 </wgt>
<wgt id='1840'> +4.2396742E-01 </wgt>
<wgt id='1841'> +3.9131833E-01 </wgt>
<wgt id='1842'> +3.9248263E-01 </wgt>
<wgt id='1843'> +4.0782407E-01 </wgt>
<wgt id='1844'> +3.9880918E-01 </wgt>
<wgt id='1845'> +4.0061700E-01 </wgt>
<wgt id='1846'> +4.0742642E-01 </wgt>
<wgt id='1847'> +4.1020244E-01 </wgt>
<wgt id='1848'> +3.9250398E-01 </wgt>
<wgt id='1849'> +3.9544259E-01 </wgt>
<wgt id='1850'> +4.0418309E-01 </wgt>
<wgt id='1851'> +4.0397726E-01 </wgt>
<wgt id='1852'> +3.8783644E-01 </wgt>
<wgt id='1853'> +4.0808074E-01 </wgt>
<wgt id='1854'> +3.9931778E-01 </wgt>
<wgt id='1855'> +3.9093732E-01 </wgt>
<wgt id='1856'> +3.8818782E-01 </wgt>
<wgt id='1857'> +3.7386276E-01 </wgt>
<wgt id='1858'> +3.8726516E-01 </wgt>
<wgt id='1859'> +3.8944398E-01 </wgt>
<wgt id='1860'> +4.0254558E-01 </wgt>
<wgt id='1861'> +3.8635929E-01 </wgt>
<wgt id='1862'> +3.8394270E-01 </wgt>
<wgt id='1863'> +3.8855154E-01 </wgt>
<wgt id='1864'> +3.9632703E-01 </wgt>
<wgt id='1865'> +4.1331138E-01 </wgt>
<wgt id='1866'> +3.8868878E-01 </wgt>
<wgt id='1867'> +3.8360470E-01 </wgt>
<wgt id='1868'> +3.9646879E-01 </wgt>
<wgt id='1869'> +4.1587233E-01 </wgt>
<wgt id='1870'> +3.8947429E-01 </wgt>
<wgt id='1871'> +4.0153758E-01 </wgt>
<wgt id='1872'> +3.8838255E-01 </wgt>
<wgt id='1873'> +3.7789646E-01 </wgt>
<wgt id='1874'> +3.7889442E-01 </wgt>
<wgt id='1875'> +4.1697130E-01 </wgt>
<wgt id='1876'> +3.8758810E-01 </wgt>
<wgt id='1877'> +3.9469589E-01 </wgt>
<wgt id='1878'> +4.0139038E-01 </wgt>
<wgt id='1879'> +4.0258441E-01 </wgt>
<wgt id='1880'> +3.7791894E-01 </wgt>
<wgt id='1881'> +3.8537258E-01 </wgt>
<wgt id='1882'> +4.0932026E-01 </wgt>
<wgt id='1883'> +3.9732769E-01 </wgt>
<wgt id='1884'> +3.8622978E-01 </wgt>
<wgt id='1885'> +3.9792132E-01 </wgt>
<wgt id='1886'> +4.1098129E-01 </wgt>
<wgt id='1887'> +3.9138875E-01 </wgt>
<wgt id='1888'> +4.0619642E-01 </wgt>
<wgt id='1889'> +3.8944645E-01 </wgt>
<wgt id='1890'> +4.1625628E-01 </wgt>
<wgt id='1891'> +3.8657395E-01 </wgt>
<wgt id='1892'> +3.9407089E-01 </wgt>
<wgt id='1893'> +3.9507678E-01 </wgt>
<wgt id='1894'> +3.9229943E-01 </wgt>
<wgt id='1895'> +3.8922392E-01 </wgt>
<wgt id='1896'> +4.0161629E-01 </wgt>
<wgt id='1897'> +3.8869999E-01 </wgt>
<wgt id='1898'> +3.8686314E-01 </wgt>
<wgt id='1899'> +3.9090299E-01 </wgt>
<wgt id='1900'> +4.0654038E-01 </wgt>
<wgt id='1901'> +4.1263970E-01 </wgt>
<wgt id='1902'> +3.9670549E-01 </wgt>
<wgt id='1903'> +3.8278261E-01 </wgt>
<wgt id='1904'> +3.8568290E-01 </wgt>
<wgt id='1905'> +4.0213157E-01 </wgt>
<wgt id='1906'> +4.0670636E-01 </wgt>
<wgt id='1907'> +3.9462012E-01 </wgt>
<wgt id='1908'> +4.0323703E-01 </wgt>
<wgt id='1909'> +4.0259237E-01 </wgt>
<wgt id='1910'> +4.0370513E-01 </wgt>
<wgt id='1911'> +3.8789610E-01 </wgt>
<wgt id='1912'> +3.8106401E-01 </wgt>
<wgt id='1913'> +4.2165176E-01 </wgt>
<wgt id='1914'> +3.8848698E-01 </wgt>
<wgt id='1915'> +3.8855669E-01 </wgt>
<wgt id='1916'> +3.8218668E-01 </wgt>
<wgt id='1917'> +4.0958776E-01 </wgt>
<wgt id='1918'> +4.0207090E-01 </wgt>
<wgt id='1919'> +3.9730719E-01 </wgt>
<wgt id='1920'> +3.8847925E-01 </wgt>
<wgt id='1921'> +3.9319430E-01 </wgt>
<wgt id='1922'> +4.1456079E-01 </wgt>
<wgt id='1923'> +3.8879801E-01 </wgt>
<wgt id='1924'> +4.3155461E-01 </wgt>
<wgt id='1925'> +3.8476713E-01 </wgt>
<wgt id='1926'> +3.9023620E-01 </wgt>
<wgt id='1927'> +3.9280229E-01 </wgt>
<wgt id='1928'> +4.1197155E-01 </wgt>
<wgt id='1929'> +4.1092066E-01 </wgt>
<wgt id='1930'> +3.7337328E-01 </wgt>
<wgt id='1931'> +3.9870656E-01 </wgt>
<wgt id='1932'> +3.9958195E-01 </wgt>
<wgt id='1933'> +4.0078843E-01 </wgt>
<wgt id='1934'> +4.0021903E-01 </wgt>
<wgt id='1935'> +4.3089467E-01 </wgt>
<wgt id='1936'> +4.0070833E-01 </wgt>
<wgt id='1937'> +3.9770311E-01 </wgt>
<wgt id='1938'> +3.9256415E-01 </wgt>
<wgt id='1939'> +4.2058366E-01 </wgt>
<wgt id='1940'> +4.0624606E-01 </wgt>
<wgt id='1941'> +3.9326016E-01 </wgt>
<wgt id='1942'> +4.1756516E-01 </wgt>
<wgt id='1943'> +4.2396742E-01 </wgt>
<wgt id='1944'> +3.9131833E-01 </wgt>
<wgt id='1945'> +3.9248263E-01 </wgt>
<wgt id='1946'> +4.0782407E-01 </wgt>
<wgt id='1947'> +3.9880918E-01 </wgt>
<wgt id='1948'> +4.0061700E-01 </wgt>
<wgt id='1949'> +4.0742642E-01 </wgt>
<wgt id='1950'> +4.1020244E-01 </wgt>
<wgt id='1951'> +3.9250398E-01 </wgt>
<wgt id='1952'> +3.9544259E-01 </wgt>
<wgt id='1953'> +4.0418309E-01 </wgt>
<wgt id='1954'> +4.0397726E-01 </wgt>
<wgt id='1955'> +3.8783644E-01 </wgt>
<wgt id='1956'> +4.0808074E-01 </wgt>
<wgt id='1957'> +3.9931778E-01 </wgt>
<wgt id='1958'> +3.9093732E-01 </wgt>
<wgt id='1959'> +3.8818782E-01 </wgt>
<wgt id='1960'> +3.7386276E-01 </wgt>
<wgt id='1961'> +3.8726516E-01 </wgt>
<wgt id='1962'> +3.8944398E-01 </wgt>
<wgt id='1963'> +4.0254558E-01 </wgt>
<wgt id='1964'> +3.8635929E-01 </wgt>
<wgt id='1965'> +3.8394270E-01 </wgt>
<wgt id='1966'> +3.8855154E-01 </wgt>
<wgt id='1967'> +3.9632703E-01 </wgt>
<wgt id='1968'> +4.1331138E-01 </wgt>
<wgt id='1969'> +3.8868878E-01 </wgt>
<wgt id='1970'> +3.8360470E-01 </wgt>
<wgt id='1971'> +3.9646879E-01 </wgt>
<wgt id='1972'> +4.1587233E-01 </wgt>
<wgt id='1973'> +3.8947429E-01 </wgt>
<wgt id='1974'> +4.0153758E-01 </wgt>
<wgt id='1975'> +3.8838255E-01 </wgt>
<wgt id='1976'> +3.7789646E-01 </wgt>
<wgt id='1977'> +3.7889442E-01 </wgt>
<wgt id='1978'> +4.1697130E-01 </wgt>
<wgt id='1979'> +3.8758810E-01 </wgt>
<wgt id='1980'> +3.9469589E-01 </wgt>
<wgt id='1981'> +4.0139038E-01 </wgt>
<wgt id='1982'> +4.0258441E-01 </wgt>
<wgt id='1983'> +3.7791894E-01 </wgt>
<wgt id='1984'> +3.8537258E-01 </wgt>
<wgt id='1985'> +4.0932026E-01 </wgt>
<wgt id='1986'> +3.9732769E-01 </wgt>
<wgt id='1987'> +3.8622978E-01 </wgt>
<wgt id='1988'> +3.9792132E-01 </wgt>
<wgt id='1989'> +4.1098129E-01 </wgt>
<wgt id='1990'> +3.9138875E-01 </wgt>
<wgt id='1991'> +4.0619642E-01 </wgt>
<wgt id='1992'> +3.8944645E-01 </wgt>
<wgt id='1993'> +4.1625628E-01 </wgt>
<wgt id='1994'> +3.8657395E-01 </wgt>
<wgt id='1995'> +3.9407089E-01 </wgt>
<wgt id='1996'> +3.9507678E-01 </wgt>
<wgt id='1997'> +3.9229943E-01 </wgt>
<wgt id='1998'> +3.8922392E-01 </wgt>
<wgt id='1999'> +4.0161629E-01 </wgt>
<wgt id='2000'> +3.8869999E-01 </wgt>
<wgt id='2001'> +3.8686314E-01 </wgt>
<wgt id='2002'> +3.9090299E-01 </wgt>
<wgt id='2003'> +4.0654038E-01 </wgt>
<wgt id='2004'> +4.1263970E-01 </wgt>
<wgt id='2005'> +3.9670549E-01 </wgt>
<wgt id='2006'> +3.8278261E-01 </wgt>
<wgt id='2007'> +3.8568290E-01 </wgt>
<wgt id='2008'> +4.0213157E-01 </wgt>
<wgt id='2009'> +4.0670636E-01 </wgt>
<wgt id='2010'> +3.9462012E-01 </wgt>
<wgt id='2011'> +4.0323703E-01 </wgt>
<wgt id='2012'> +4.0259237E-01 </wgt>
<wgt id='2013'> +4.0370513E-01 </wgt>
<wgt id='2014'> +3.8789610E-01 </wgt>
<wgt id='2015'> +3.8106401E-01 </wgt>
<wgt id='2016'> +4.2165176E-01 </wgt>
<wgt id='2017'> +3.8848698E-01 </wgt>
<wgt id='2018'> +3.8855669E-01 </wgt>
<wgt id='2019'> +3.8218668E-01 </wgt>
<wgt id='2020'> +3.9374927E-01 </wgt>
<wgt id='2021'> +3.9650754E-01 </wgt>
<wgt id='2022'> +3.8448106E-01 </wgt>
</rwgt>
</event>
<event>
13      2 +3.9556008E-01 7.75059600e+01 7.81860800e-03 1.15931100e-01
        1 -1    0    0  501    0 +0.0000000000e+00 +0.0000000000e+00 +1.5688486335e+03 1.5688486335e+03 5.0400000000e-03 0.0000e+00 -1.0000e+00
       21 -1    0    0  502  503 +0.0000000000e+00 +0.0000000000e+00 -8.0781954654e+02 8.0781954654e+02 0.0000000000e+00 0.0000e+00 1.0000e+00
 -8000001  2    1    2    0  503 +7.0469883894e+01 +1.5774129157e+01 +3.1281554906e+02 6.8049197412e+02 6.0000077618e+02 0.0000e+00 0.0000e+00
        2  1    1    2  501    0 -7.6799334598e+01 -1.0750535196e+01 +1.0707576512e+03 1.0735621358e+03 2.5500000000e-03 0.0000e+00 -1.0000e+00
        5  1    1    2  502    0 +6.3294507041e+00 -5.0235939618e+00 -6.2254411329e+02 6.2261407014e+02 4.6700000000e+00 0.0000e+00 -1.0000e+00
       -6  2    3    3    0  503 -1.3887543318e+02 -1.8546515436e+02 +8.7426342518e+01 3.0182688846e+02 1.7254679310e+02 0.0000e+00 0.0000e+00
       -5  1    6    6    0  503 -5.0275311304e+01 -1.4964664617e+02 +7.8901606980e+01 1.7654743873e+02 4.6700000000e+00 0.0000e+00 1.0000e+00
      -24  2    6    6    0    0 -8.8600121877e+01 -3.5818508186e+01 +8.5247355383e+00 1.2527944973e+02 8.0556329881e+01 0.0000e+00 0.0000e+00
        1  1    8    8  504    0 -9.8261220313e-01 +2.5119366373e+00 -2.4086581704e+01 2.4237136712e+01 5.0400000000e-03 0.0000e+00 -1.0000e+00
       -2  1    8    8    0  504 -8.7617509674e+01 -3.8330444824e+01 +3.2611317242e+01 1.0104231302e+02 2.5500000000e-03 0.0000e+00 1.0000e+00
       23  2    3    3    0    0 +2.0934531707e+02 +2.0123928351e+02 +2.2538920654e+02 3.7866508566e+02 9.0907874570e+01 0.0000e+00 0.0000e+00
        1  1   11   11  505    0 +1.8525554805e+02 +2.0456449914e+02 +1.8752512843e+02 3.3366439158e+02 5.0400000000e-03 0.0000e+00 -1.0000e+00
       -1  1   11   11    0  505 +2.4089769024e+01 -3.3252156231e+00 +3.7864078113e+01 4.5000694076e+01 5.0400000000e-03 0.0000e+00 1.0000e+00
<mgrwt>
<rscale>  1 0.76315145e+02</rscale>
<asrwt>0</asrwt>
<pdfrwt beam="1">  1       21 0.12427993e+00 0.75142626e+02</pdfrwt>
<pdfrwt beam="2">  1        1 0.24136133e+00 0.77505960e+02</pdfrwt>
<totfact> 0.43254413e+01</totfact>
</mgrwt>
<rwgt>
<wgt id='1001'> +3.9556008E-01 </wgt>
<wgt id='1002'> +1.9497830E-01 </wgt>
<wgt id='1003'> +1.9486743E-01 </wgt>
<wgt id='1004'> +2.4030968E-01 </wgt>
<wgt id='1005'> +1.3871552E-01 </wgt>
<wgt id='1006'> +3.5547549E-01 </wgt>
<wgt id='1007'> +1.8009146E-01 </wgt>
<wgt id='1008'> +1.7999243E-01 </wgt>
<wgt id='1009'> +2.2037362E-01 </wgt>
<wgt id='1010'> +1.2945610E-01 </wgt>
<wgt id='1011'> +4.4624124E-01 </wgt>
<wgt id='1012'> +2.1262177E-01 </wgt>
<wgt id='1013'> +2.1249608E-01 </wgt>
<wgt id='1014'> +2.6433034E-01 </wgt>
<wgt id='1015'> +1.4943447E-01 </wgt>
<wgt id='1016'> +3.4209291E-01 </wgt>
<wgt id='1017'> +1.7394130E-01 </wgt>
<wgt id='1018'> +1.7384603E-01 </wgt>
<wgt id='1019'> +2.1249608E-01 </wgt>
<wgt id='1020'> +1.2530167E-01 </wgt>
<wgt id='1021'> +3.0742648E-01 </wgt>
<wgt id='1022'> +1.6066066E-01 </wgt>
<wgt id='1023'> +1.6057567E-01 </wgt>
<wgt id='1024'> +1.9486743E-01 </wgt>
<wgt id='1025'> +1.1693764E-01 </wgt>
<wgt id='1026'> +3.8592358E-01 </wgt>
<wgt id='1027'> +1.8968115E-01 </wgt>
<wgt id='1028'> +1.8957298E-01 </wgt>
<wgt id='1029'> +2.3373657E-01 </wgt>
<wgt id='1030'> +1.3498409E-01 </wgt>
<wgt id='1031'> +4.6386019E-01 </wgt>
<wgt id='1032'> +2.2050537E-01 </wgt>
<wgt id='1033'> +2.2037362E-01 </wgt>
<wgt id='1034'> +2.7440127E-01 </wgt>
<wgt id='1035'> +1.5455521E-01 </wgt>
<wgt id='1036'> +4.1685432E-01 </wgt>
<wgt id='1037'> +2.0366950E-01 </wgt>
<wgt id='1038'> +2.0355163E-01 </wgt>
<wgt id='1039'> +2.5163698E-01 </wgt>
<wgt id='1040'> +1.4423847E-01 </wgt>
<wgt id='1041'> +5.2329230E-01 </wgt>
<wgt id='1042'> +2.4045878E-01 </wgt>
<wgt id='1043'> +2.4030968E-01 </wgt>
<wgt id='1044'> +3.0182962E-01 </wgt>
<wgt id='1045'> +1.6649814E-01 </wgt>
<wgt id='1046'> +3.9556008E-01 </wgt>
<wgt id='1047'> +3.9556008E-01 </wgt>
<wgt id='1048'> +3.9556008E-01 </wgt>
<wgt id='1049'> +3.9588205E-01 </wgt>
<wgt id='1050'> +3.9470947E-01 </wgt>
<wgt id='1051'> +3.9815359E-01 </wgt>
<wgt id='1052'> +3.9509749E-01 </wgt>
<wgt id='1053'> +3.9715784E-01 </wgt>
<wgt id='1054'> +3.9430943E-01 </wgt>
<wgt id='1055'> +3.9293134E-01 </wgt>
<wgt id='1056'> +3.9382394E-01 </wgt>
<wgt id='1057'> +3.9623827E-01 </wgt>
<wgt id='1058'> +3.9643193E-01 </wgt>
<wgt id='1059'> +3.9723518E-01 </wgt>
<wgt id='1060'> +3.9599717E-01 </wgt>
<wgt id='1061'> +3.9624241E-01 </wgt>
<wgt id='1062'> +3.9475975E-01 </wgt>
<wgt id='1063'> +3.9499893E-01 </wgt>
<wgt id='1064'> +3.9613583E-01 </wgt>
<wgt id='1065'> +3.9664321E-01 </wgt>
<wgt id='1066'> +3.9430520E-01 </wgt>
<wgt id='1067'> +3.9230384E-01 </wgt>
<wgt id='1068'> +3.9652581E-01 </wgt>
<wgt id='1069'> +3.9503399E-01 </wgt>
<wgt id='1070'> +3.9574688E-01 </wgt>
<wgt id='1071'> +3.9550639E-01 </wgt>
<wgt id='1072'> +3.9497260E-01 </wgt>
<wgt id='1073'> +3.9560743E-01 </wgt>
<wgt id='1074'> +3.9663813E-01 </wgt>
<wgt id='1075'> +3.9596773E-01 </wgt>
<wgt id='1076'> +3.9889859E-01 </wgt>
<wgt id='1077'> +3.9765263E-01 </wgt>
<wgt id='1078'> +3.9447121E-01 </wgt>
<wgt id='1079'> +3.9692381E-01 </wgt>
<wgt id='1080'> +3.9611455E-01 </wgt>
<wgt id='1081'> +3.9568800E-01 </wgt>
<wgt id='1082'> +3.9539544E-01 </wgt>
<wgt id='1083'> +3.9712861E-01 </wgt>
<wgt id='1084'> +3.9207968E-01 </wgt>
<wgt id='1085'> +3.9722682E-01 </wgt>
<wgt id='1086'> +3.9279934E-01 </wgt>
<wgt id='1087'> +3.9493899E-01 </wgt>
<wgt id='1088'> +3.9535262E-01 </wgt>
<wgt id='1089'> +3.9584827E-01 </wgt>
<wgt id='1090'> +3.9467376E-01 </wgt>
<wgt id='1091'> +3.9540189E-01 </wgt>
<wgt id='1092'> +3.9512395E-01 </wgt>
<wgt id='1093'> +3.9548640E-01 </wgt>
<wgt id='1094'> +3.9566043E-01 </wgt>
<wgt id='1095'> +3.9647144E-01 </wgt>
<wgt id='1096'> +3.9570148E-01 </wgt>
<wgt id='1097'> +3.9606186E-01 </wgt>
<wgt id='1098'> +3.9432603E-01 </wgt>
<wgt id='1099'> +3.9481280E-01 </wgt>
<wgt id='1100'> +3.9540353E-01 </wgt>
<wgt id='1101'> +3.9627875E-01 </wgt>
<wgt id='1102'> +3.9510217E-01 </wgt>
<wgt id='1103'> +3.9520443E-01 </wgt>
<wgt id='1104'> +3.9344151E-01 </wgt>
<wgt id='1105'> +3.9501167E-01 </wgt>
<wgt id='1106'> +3.9663487E-01 </wgt>
<wgt id='1107'> +3.9582298E-01 </wgt>
<wgt id='1108'> +3.9492334E-01 </wgt>
<wgt id='1109'> +3.9622214E-01 </wgt>
<wgt id='1110'> +3.9681146E-01 </wgt>
<wgt id='1111'> +3.9507827E-01 </wgt>
<wgt id='1112'> +3.9562604E-01 </wgt>
<wgt id='1113'> +3.9533141E-01 </wgt>
<wgt id='1114'> +3.9527040E-01 </wgt>
<wgt id='1115'> +3.9540577E-01 </wgt>
<wgt id='1116'> +3.9621827E-01 </wgt>
<wgt id='1117'> +3.9544832E-01 </wgt>
<wgt id='1118'> +3.9477220E-01 </wgt>
<wgt id='1119'> +3.9598520E-01 </wgt>
<wgt id='1120'> +3.9576161E-01 </wgt>
<wgt id='1121'> +3.9662594E-01 </wgt>
<wgt id='1122'> +3.9690707E-01 </wgt>
<wgt id='1123'> +3.9460719E-01 </wgt>
<wgt id='1124'> +3.9577244E-01 </wgt>
<wgt id='1125'> +3.9577289E-01 </wgt>
<wgt id='1126'> +3.9608918E-01 </wgt>
<wgt id='1127'> +3.9543457E-01 </wgt>
<wgt id='1128'> +3.9549867E-01 </wgt>
<wgt id='1129'> +3.9544128E-01 </wgt>
<wgt id='1130'> +3.9568299E-01 </wgt>
<wgt id='1131'> +3.9546837E-01 </wgt>
<wgt id='1132'> +3.9503931E-01 </wgt>
<wgt id='1133'> +3.9564570E-01 </wgt>
<wgt id='1134'> +3.9619721E-01 </wgt>
<wgt id='1135'> +3.9556744E-01 </wgt>
<wgt id='1136'> +3.9588221E-01 </wgt>
<wgt id='1137'> +3.9483276E-01 </wgt>
<wgt id='1138'> +3.9549335E-01 </wgt>
<wgt id='1139'> +3.9504072E-01 </wgt>
<wgt id='1140'> +3.9542793E-01 </wgt>
<wgt id='1141'> +3.9553527E-01 </wgt>
<wgt id='1142'> +3.9581603E-01 </wgt>
<wgt id='1143'> +3.9518485E-01 </wgt>
<wgt id='1144'> +3.9563681E-01 </wgt>
<wgt id='1145'> +3.9594197E-01 </wgt>
<wgt id='1146'> +3.9573720E-01 </wgt>
<wgt id='1147'> +3.9562483E-01 </wgt>
<wgt id='1148'> +3.9556008E-01 </wgt>
<wgt id='1149'> +3.6451002E-01 </wgt>
<wgt id='1150'> +3.7110606E-01 </wgt>
<wgt id='1151'> +3.6680317E-01 </wgt>
<wgt id='1152'> +3.6757246E-01 </wgt>
<wgt id='1153'> +3.6770387E-01 </wgt>
<wgt id='1154'> +3.7210358E-01 </wgt>
<wgt id='1155'> +3.7254225E-01 </wgt>
<wgt id='1156'> +3.5775455E-01 </wgt>
<wgt id='1157'> +3.6036304E-01 </wgt>
<wgt id='1158'> +3.7139770E-01 </wgt>
<wgt id='1159'> +3.5299636E-01 </wgt>
<wgt id='1160'> +3.4617898E-01 </wgt>
<wgt id='1161'> +3.7688178E-01 </wgt>
<wgt id='1162'> +3.4320206E-01 </wgt>
<wgt id='1163'> +3.7324783E-01 </wgt>
<wgt id='1164'> +3.5465985E-01 </wgt>
<wgt id='1165'> +3.6756588E-01 </wgt>
<wgt id='1166'> +3.5988486E-01 </wgt>
<wgt id='1167'> +3.7004986E-01 </wgt>
<wgt id='1168'> +3.6748119E-01 </wgt>
<wgt id='1169'> +3.6142482E-01 </wgt>
<wgt id='1170'> +3.6533259E-01 </wgt>
<wgt id='1171'> +3.6273191E-01 </wgt>
<wgt id='1172'> +3.7654732E-01 </wgt>
<wgt id='1173'> +3.6976511E-01 </wgt>
<wgt id='1174'> +3.8011480E-01 </wgt>
<wgt id='1175'> +3.6705663E-01 </wgt>
<wgt id='1176'> +3.5445186E-01 </wgt>
<wgt id='1177'> +3.6463190E-01 </wgt>
<wgt id='1178'> +3.5841479E-01 </wgt>
<wgt id='1179'> +3.4073725E-01 </wgt>
<wgt id='1180'> +3.5364290E-01 </wgt>
<wgt id='1181'> +3.5443569E-01 </wgt>
<wgt id='1182'> +3.7670880E-01 </wgt>
<wgt id='1183'> +3.6556544E-01 </wgt>
<wgt id='1184'> +3.5521080E-01 </wgt>
<wgt id='1185'> +3.7053762E-01 </wgt>
<wgt id='1186'> +3.6152263E-01 </wgt>
<wgt id='1187'> +3.5402373E-01 </wgt>
<wgt id='1188'> +3.3416568E-01 </wgt>
<wgt id='1189'> +3.6057910E-01 </wgt>
<wgt id='1190'> +3.5899456E-01 </wgt>
<wgt id='1191'> +3.7407638E-01 </wgt>
<wgt id='1192'> +3.6893758E-01 </wgt>
<wgt id='1193'> +3.6181777E-01 </wgt>
<wgt id='1194'> +3.6060390E-01 </wgt>
<wgt id='1195'> +3.6277821E-01 </wgt>
<wgt id='1196'> +3.8138958E-01 </wgt>
<wgt id='1197'> +3.6841839E-01 </wgt>
<wgt id='1198'> +3.5400019E-01 </wgt>
<wgt id='1199'> +3.6131041E-01 </wgt>
<wgt id='1200'> +3.5905076E-01 </wgt>
<wgt id='1201'> +3.7666634E-01 </wgt>
<wgt id='1202'> +3.6660676E-01 </wgt>
<wgt id='1203'> +3.7028407E-01 </wgt>
<wgt id='1204'> +3.6377382E-01 </wgt>
<wgt id='1205'> +3.6548697E-01 </wgt>
<wgt id='1206'> +3.6928447E-01 </wgt>
<wgt id='1207'> +3.7489952E-01 </wgt>
<wgt id='1208'> +3.5832213E-01 </wgt>
<wgt id='1209'> +3.7842070E-01 </wgt>
<wgt id='1210'> +3.6142020E-01 </wgt>
<wgt id='1211'> +3.8183896E-01 </wgt>
<wgt id='1212'> +3.6046166E-01 </wgt>
<wgt id='1213'> +3.6940741E-01 </wgt>
<wgt id='1214'> +3.7246532E-01 </wgt>
<wgt id='1215'> +3.7141693E-01 </wgt>
<wgt id='1216'> +3.7234151E-01 </wgt>
<wgt id='1217'> +3.6303650E-01 </wgt>
<wgt id='1218'> +3.6738839E-01 </wgt>
<wgt id='1219'> +3.6484770E-01 </wgt>
<wgt id='1220'> +3.5888319E-01 </wgt>
<wgt id='1221'> +3.4420590E-01 </wgt>
<wgt id='1222'> +3.7596243E-01 </wgt>
<wgt id='1223'> +3.5701987E-01 </wgt>
<wgt id='1224'> +3.6158956E-01 </wgt>
<wgt id='1225'> +3.6354913E-01 </wgt>
<wgt id='1226'> +3.6497071E-01 </wgt>
<wgt id='1227'> +3.6850492E-01 </wgt>
<wgt id='1228'> +3.7364819E-01 </wgt>
<wgt id='1229'> +3.4714799E-01 </wgt>
<wgt id='1230'> +3.7439067E-01 </wgt>
<wgt id='1231'> +3.6756588E-01 </wgt>
<wgt id='1232'> +3.4574132E-01 </wgt>
<wgt id='1233'> +3.5944069E-01 </wgt>
<wgt id='1234'> +3.5913435E-01 </wgt>
<wgt id='1235'> +3.7649002E-01 </wgt>
<wgt id='1236'> +3.6420866E-01 </wgt>
<wgt id='1237'> +3.5130993E-01 </wgt>
<wgt id='1238'> +3.5121133E-01 </wgt>
<wgt id='1239'> +3.6994867E-01 </wgt>
<wgt id='1240'> +3.6635868E-01 </wgt>
<wgt id='1241'> +3.6032958E-01 </wgt>
<wgt id='1242'> +3.5946480E-01 </wgt>
<wgt id='1243'> +3.8049880E-01 </wgt>
<wgt id='1244'> +3.6240716E-01 </wgt>
<wgt id='1245'> +3.6959382E-01 </wgt>
<wgt id='1246'> +3.8107575E-01 </wgt>
<wgt id='1247'> +3.6439208E-01 </wgt>
<wgt id='1248'> +3.7854618E-01 </wgt>
<wgt id='1249'> +3.6011687E-01 </wgt>
<wgt id='1250'> +3.8944294E-01 </wgt>
<wgt id='1251'> +3.8155103E-01 </wgt>
<wgt id='1252'> +3.9502225E-01 </wgt>
<wgt id='1253'> +3.9968142E-01 </wgt>
<wgt id='1254'> +4.2080947E-01 </wgt>
<wgt id='1255'> +4.2007348E-01 </wgt>
<wgt id='1256'> +4.2007662E-01 </wgt>
<wgt id='1257'> +4.2004452E-01 </wgt>
<wgt id='1258'> +4.2114108E-01 </wgt>
<wgt id='1259'> +4.1951538E-01 </wgt>
<wgt id='1260'> +4.1867304E-01 </wgt>
<wgt id='1261'> +4.2194601E-01 </wgt>
<wgt id='1262'> +4.1937789E-01 </wgt>
<wgt id='1263'> +4.2049543E-01 </wgt>
<wgt id='1264'> +4.2812853E-01 </wgt>
<wgt id='1265'> +4.1454891E-01 </wgt>
<wgt id='1266'> +4.2009296E-01 </wgt>
<wgt id='1267'> +4.2003334E-01 </wgt>
<wgt id='1268'> +4.2035057E-01 </wgt>
<wgt id='1269'> +4.1968227E-01 </wgt>
<wgt id='1270'> +4.1730452E-01 </wgt>
<wgt id='1271'> +4.2280739E-01 </wgt>
<wgt id='1272'> +4.1686418E-01 </wgt>
<wgt id='1273'> +4.2235972E-01 </wgt>
<wgt id='1274'> +4.2096501E-01 </wgt>
<wgt id='1275'> +4.1890223E-01 </wgt>
<wgt id='1276'> +4.2096639E-01 </wgt>
<wgt id='1277'> +4.1924039E-01 </wgt>
<wgt id='1278'> +4.1580450E-01 </wgt>
<wgt id='1279'> +4.2338674E-01 </wgt>
<wgt id='1280'> +4.2041104E-01 </wgt>
<wgt id='1281'> +4.1857594E-01 </wgt>
<wgt id='1282'> +4.2259727E-01 </wgt>
<wgt id='1283'> +4.1729338E-01 </wgt>
<wgt id='1284'> +4.2253335E-01 </wgt>
<wgt id='1285'> +4.1715074E-01 </wgt>
<wgt id='1286'> +4.1497245E-01 </wgt>
<wgt id='1287'> +4.2038473E-01 </wgt>
<wgt id='1288'> +4.2135683E-01 </wgt>
<wgt id='1289'> +4.1922522E-01 </wgt>
<wgt id='1290'> +4.2128605E-01 </wgt>
<wgt id='1291'> +4.1961947E-01 </wgt>
<wgt id='1292'> +4.2364705E-01 </wgt>
<wgt id='1293'> +4.1607421E-01 </wgt>
<wgt id='1294'> +4.1851558E-01 </wgt>
<wgt id='1295'> +4.1965495E-01 </wgt>
<wgt id='1296'> +4.0613221E-01 </wgt>
<wgt id='1297'> +4.0718335E-01 </wgt>
<wgt id='1298'> +4.0527885E-01 </wgt>
<wgt id='1299'> +4.0622566E-01 </wgt>
<wgt id='1300'> +4.0598731E-01 </wgt>
<wgt id='1301'> +4.0591379E-01 </wgt>
<wgt id='1302'> +4.0644183E-01 </wgt>
<wgt id='1303'> +4.0676112E-01 </wgt>
<wgt id='1304'> +4.0568912E-01 </wgt>
<wgt id='1305'> +4.0576750E-01 </wgt>
<wgt id='1306'> +4.0664407E-01 </wgt>
<wgt id='1307'> +4.0461332E-01 </wgt>
<wgt id='1308'> +4.0706668E-01 </wgt>
<wgt id='1309'> +4.0100706E-01 </wgt>
<wgt id='1310'> +4.1313751E-01 </wgt>
<wgt id='1311'> +4.0528637E-01 </wgt>
<wgt id='1312'> +4.0643281E-01 </wgt>
<wgt id='1313'> +4.0283924E-01 </wgt>
<wgt id='1314'> +4.1019636E-01 </wgt>
<wgt id='1315'> +4.0804966E-01 </wgt>
<wgt id='1316'> +4.0399866E-01 </wgt>
<wgt id='1317'> +4.0777370E-01 </wgt>
<wgt id='1318'> +4.0353825E-01 </wgt>
<wgt id='1319'> +4.0496192E-01 </wgt>
<wgt id='1320'> +4.0676061E-01 </wgt>
<wgt id='1321'> +4.0179275E-01 </wgt>
<wgt id='1322'> +4.0811893E-01 </wgt>
<wgt id='1323'> +4.0600260E-01 </wgt>
<wgt id='1324'> +4.0221703E-01 </wgt>
<wgt id='1325'> +4.0580971E-01 </wgt>
<wgt id='1326'> +4.0637894E-01 </wgt>
<wgt id='1327'> +4.0485155E-01 </wgt>
<wgt id='1328'> +4.0653894E-01 </wgt>
<wgt id='1329'> +4.0615023E-01 </wgt>
<wgt id='1330'> +4.0597344E-01 </wgt>
<wgt id='1331'> +4.0549377E-01 </wgt>
<wgt id='1332'> +4.0615204E-01 </wgt>
<wgt id='1333'> +4.0756632E-01 </wgt>
<wgt id='1334'> +4.0738002E-01 </wgt>
<wgt id='1335'> +4.0740914E-01 </wgt>
<wgt id='1336'> +4.0565008E-01 </wgt>
<wgt id='1337'> +4.0613221E-01 </wgt>
<wgt id='1338'> +4.0685495E-01 </wgt>
<wgt id='1339'> +4.0655229E-01 </wgt>
<wgt id='1340'> +4.0627238E-01 </wgt>
<wgt id='1341'> +4.0575004E-01 </wgt>
<wgt id='1342'> +4.0556405E-01 </wgt>
<wgt id='1343'> +4.0534198E-01 </wgt>
<wgt id='1344'> +3.9872037E-01 </wgt>
<wgt id='1345'> +4.0004511E-01 </wgt>
<wgt id='1346'> +3.9738319E-01 </wgt>
<wgt id='1347'> +3.9844372E-01 </wgt>
<wgt id='1348'> +3.9889299E-01 </wgt>
<wgt id='1349'> +3.9891600E-01 </wgt>
<wgt id='1350'> +3.9851102E-01 </wgt>
<wgt id='1351'> +3.9859243E-01 </wgt>
<wgt id='1352'> +3.9889544E-01 </wgt>
<wgt id='1353'> +3.9875677E-01 </wgt>
<wgt id='1354'> +3.9865572E-01 </wgt>
<wgt id='1355'> +4.0559047E-01 </wgt>
<wgt id='1356'> +3.9338217E-01 </wgt>
<wgt id='1357'> +4.0109730E-01 </wgt>
<wgt id='1358'> +3.9728024E-01 </wgt>
<wgt id='1359'> +3.9873575E-01 </wgt>
<wgt id='1360'> +3.9870413E-01 </wgt>
<wgt id='1361'> +3.9525733E-01 </wgt>
<wgt id='1362'> +4.0204364E-01 </wgt>
<wgt id='1363'> +3.9671150E-01 </wgt>
<wgt id='1364'> +4.0042500E-01 </wgt>
<wgt id='1365'> +3.9814000E-01 </wgt>
<wgt id='1366'> +3.9890573E-01 </wgt>
<wgt id='1367'> +3.9373234E-01 </wgt>
<wgt id='1368'> +4.0089863E-01 </wgt>
<wgt id='1369'> +3.9921473E-01 </wgt>
<wgt id='1370'> +3.9791204E-01 </wgt>
<wgt id='1371'> +3.9651054E-01 </wgt>
<wgt id='1372'> +3.9711153E-01 </wgt>
<wgt id='1373'> +4.0183581E-01 </wgt>
<wgt id='1374'> +3.9809771E-01 </wgt>
<wgt id='1375'> +3.9781393E-01 </wgt>
<wgt id='1376'> +3.9882962E-01 </wgt>
<wgt id='1377'> +3.9853910E-01 </wgt>
<wgt id='1378'> +3.9903826E-01 </wgt>
<wgt id='1379'> +3.9783072E-01 </wgt>
<wgt id='1380'> +3.9877634E-01 </wgt>
<wgt id='1381'> +3.9681733E-01 </wgt>
<wgt id='1382'> +4.0196559E-01 </wgt>
<wgt id='1383'> +3.9796259E-01 </wgt>
<wgt id='1384'> +4.0105943E-01 </wgt>
<wgt id='1385'> +3.9872037E-01 </wgt>
<wgt id='1386'> +3.9938731E-01 </wgt>
<wgt id='1387'> +3.9906315E-01 </wgt>
<wgt id='1388'> +3.9881615E-01 </wgt>
<wgt id='1389'> +3.9832261E-01 </wgt>
<wgt id='1390'> +3.9810276E-01 </wgt>
<wgt id='1391'> +3.9789380E-01 </wgt>
<wgt id='1392'> +4.3697351E-01 </wgt>
<wgt id='1393'> +4.3721755E-01 </wgt>
<wgt id='1394'> +4.3672617E-01 </wgt>
<wgt id='1395'> +4.3734641E-01 </wgt>
<wgt id='1396'> +4.3672684E-01 </wgt>
<wgt id='1397'> +4.3879373E-01 </wgt>
<wgt id='1398'> +4.3522176E-01 </wgt>
<wgt id='1399'> +4.3629878E-01 </wgt>
<wgt id='1400'> +4.3782867E-01 </wgt>
<wgt id='1401'> +4.3790831E-01 </wgt>
<wgt id='1402'> +4.3582400E-01 </wgt>
<wgt id='1403'> +4.3549303E-01 </wgt>
<wgt id='1404'> +4.3995061E-01 </wgt>
<wgt id='1405'> +4.3881904E-01 </wgt>
<wgt id='1406'> +4.3442530E-01 </wgt>
<wgt id='1407'> +4.4250304E-01 </wgt>
<wgt id='1408'> +4.3318169E-01 </wgt>
<wgt id='1409'> +4.3847878E-01 </wgt>
<wgt id='1410'> +4.3530384E-01 </wgt>
<wgt id='1411'> +4.3459963E-01 </wgt>
<wgt id='1412'> +4.3879799E-01 </wgt>
<wgt id='1413'> +4.3645593E-01 </wgt>
<wgt id='1414'> +4.3744283E-01 </wgt>
<wgt id='1415'> +4.3783631E-01 </wgt>
<wgt id='1416'> +4.3604376E-01 </wgt>
<wgt id='1417'> +4.3253466E-01 </wgt>
<wgt id='1418'> +4.4245591E-01 </wgt>
<wgt id='1419'> +4.3190587E-01 </wgt>
<wgt id='1420'> +4.3496845E-01 </wgt>
<wgt id='1421'> +4.3524480E-01 </wgt>
<wgt id='1422'> +4.3887289E-01 </wgt>
<wgt id='1423'> +4.3483785E-01 </wgt>
<wgt id='1424'> +4.3867116E-01 </wgt>
<wgt id='1425'> +4.3675539E-01 </wgt>
<wgt id='1426'> +4.3734252E-01 </wgt>
<wgt id='1427'> +4.3790313E-01 </wgt>
<wgt id='1428'> +4.3467446E-01 </wgt>
<wgt id='1429'> +4.3808362E-01 </wgt>
<wgt id='1430'> +4.3642035E-01 </wgt>
<wgt id='1431'> +4.3445514E-01 </wgt>
<wgt id='1432'> +4.3918490E-01 </wgt>
<wgt id='1433'> +4.3007553E-01 </wgt>
<wgt id='1434'> +4.4496046E-01 </wgt>
<wgt id='1435'> +4.3560556E-01 </wgt>
<wgt id='1436'> +4.3848510E-01 </wgt>
<wgt id='1437'> +4.3458484E-01 </wgt>
<wgt id='1438'> +4.4320555E-01 </wgt>
<wgt id='1439'> +4.3855803E-01 </wgt>
<wgt id='1440'> +4.3575252E-01 </wgt>
<wgt id='1441'> +4.3854235E-01 </wgt>
<wgt id='1442'> +4.3409464E-01 </wgt>
<wgt id='1443'> +4.3517326E-01 </wgt>
<wgt id='1444'> +4.3541790E-01 </wgt>
<wgt id='1445'> +4.3490164E-01 </wgt>
<wgt id='1446'> +4.3555075E-01 </wgt>
<wgt id='1447'> +4.3490023E-01 </wgt>
<wgt id='1448'> +4.3703478E-01 </wgt>
<wgt id='1449'> +4.3344415E-01 </wgt>
<wgt id='1450'> +4.3434192E-01 </wgt>
<wgt id='1451'> +4.3610735E-01 </wgt>
<wgt id='1452'> +4.3627776E-01 </wgt>
<wgt id='1453'> +4.3408490E-01 </wgt>
<wgt id='1454'> +4.3400093E-01 </wgt>
<wgt id='1455'> +4.3771410E-01 </wgt>
<wgt id='1456'> +4.3778898E-01 </wgt>
<wgt id='1457'> +4.3049346E-01 </wgt>
<wgt id='1458'> +4.4061992E-01 </wgt>
<wgt id='1459'> +4.3209059E-01 </wgt>
<wgt id='1460'> +4.3621992E-01 </wgt>
<wgt id='1461'> +4.3393598E-01 </wgt>
<wgt id='1462'> +4.3251924E-01 </wgt>
<wgt id='1463'> +4.3746114E-01 </wgt>
<wgt id='1464'> +4.3483154E-01 </wgt>
<wgt id='1465'> +4.3551719E-01 </wgt>
<wgt id='1466'> +4.3686050E-01 </wgt>
<wgt id='1467'> +4.3396875E-01 </wgt>
<wgt id='1468'> +4.4049262E-01 </wgt>
<wgt id='1469'> +4.2997036E-01 </wgt>
<wgt id='1470'> +4.3025034E-01 </wgt>
<wgt id='1471'> +4.3397914E-01 </wgt>
<wgt id='1472'> +4.3362017E-01 </wgt>
<wgt id='1473'> +4.3682353E-01 </wgt>
<wgt id='1474'> +4.3355184E-01 </wgt>
<wgt id='1475'> +4.3706590E-01 </wgt>
<wgt id='1476'> +4.3507381E-01 </wgt>
<wgt id='1477'> +4.3541814E-01 </wgt>
<wgt id='1478'> +4.3621669E-01 </wgt>
<wgt id='1479'> +4.3244449E-01 </wgt>
<wgt id='1480'> +4.3583150E-01 </wgt>
<wgt id='1481'> +4.3465559E-01 </wgt>
<wgt id='1482'> +4.3274546E-01 </wgt>
<wgt id='1483'> +4.3763366E-01 </wgt>
<wgt id='1484'> +4.2829740E-01 </wgt>
<wgt id='1485'> +4.4281431E-01 </wgt>
<wgt id='1486'> +4.3533776E-01 </wgt>
<wgt id='1487'> +4.3569662E-01 </wgt>
<wgt id='1488'> +4.3244567E-01 </wgt>
<wgt id='1489'> +4.4193807E-01 </wgt>
<wgt id='1490'> +4.3555680E-01 </wgt>
<wgt id='1491'> +4.3510905E-01 </wgt>
<wgt id='1492'> +4.3674468E-01 </wgt>
<wgt id='1493'> +4.3178669E-01 </wgt>
<wgt id='1494'> +4.1838633E-01 </wgt>
<wgt id='1495'> +4.1576857E-01 </wgt>
<wgt id='1496'> +4.1703332E-01 </wgt>
<wgt id='1497'> +4.1756009E-01 </wgt>
<wgt id='1498'> +4.1953079E-01 </wgt>
<wgt id='1499'> +4.1851735E-01 </wgt>
<wgt id='1500'> +4.1985039E-01 </wgt>
<wgt id='1501'> +4.1980251E-01 </wgt>
<wgt id='1502'> +4.1982054E-01 </wgt>
<wgt id='1503'> +4.1953494E-01 </wgt>
<wgt id='1504'> +4.1906902E-01 </wgt>
<wgt id='1505'> +4.1797803E-01 </wgt>
<wgt id='1506'> +4.1743739E-01 </wgt>
<wgt id='1507'> +4.1683026E-01 </wgt>
<wgt id='1508'> +4.1851735E-01 </wgt>
<wgt id='1509'> +4.1933862E-01 </wgt>
<wgt id='1510'> +4.1889255E-01 </wgt>
<wgt id='1511'> +4.1820843E-01 </wgt>
<wgt id='1512'> +4.1790252E-01 </wgt>
<wgt id='1513'> +4.1566233E-01 </wgt>
<wgt id='1514'> +4.1565811E-01 </wgt>
<wgt id='1515'> +4.1567092E-01 </wgt>
<wgt id='1516'> +4.1653414E-01 </wgt>
<wgt id='1517'> +4.1480782E-01 </wgt>
<wgt id='1518'> +4.1658815E-01 </wgt>
<wgt id='1519'> +4.1529539E-01 </wgt>
<wgt id='1520'> +4.1640832E-01 </wgt>
<wgt id='1521'> +4.1491693E-01 </wgt>
<wgt id='1522'> +4.1724709E-01 </wgt>
<wgt id='1523'> +4.1414273E-01 </wgt>
<wgt id='1524'> +4.1885877E-01 </wgt>
<wgt id='1525'> +4.1427734E-01 </wgt>
<wgt id='1526'> +4.1476298E-01 </wgt>
<wgt id='1527'> +4.1675159E-01 </wgt>
<wgt id='1528'> +4.2107334E-01 </wgt>
<wgt id='1529'> +4.0984277E-01 </wgt>
<wgt id='1530'> +4.1320440E-01 </wgt>
<wgt id='1531'> +4.1706675E-01 </wgt>
<wgt id='1532'> +4.1680824E-01 </wgt>
<wgt id='1533'> +4.1410250E-01 </wgt>
<wgt id='1534'> +4.1368357E-01 </wgt>
<wgt id='1535'> +4.1703951E-01 </wgt>
<wgt id='1536'> +4.1239864E-01 </wgt>
<wgt id='1537'> +4.1875648E-01 </wgt>
<wgt id='1538'> +4.1434807E-01 </wgt>
<wgt id='1539'> +4.1890815E-01 </wgt>
<wgt id='1540'> +4.1192639E-01 </wgt>
<wgt id='1541'> +4.1291536E-01 </wgt>
<wgt id='1542'> +4.1664860E-01 </wgt>
<wgt id='1543'> +4.1334442E-01 </wgt>
<wgt id='1544'> +4.1549695E-01 </wgt>
<wgt id='1545'> +4.1525564E-01 </wgt>
<wgt id='1546'> +4.1638560E-01 </wgt>
<wgt id='1547'> +4.1396750E-01 </wgt>
<wgt id='1548'> +4.1262605E-01 </wgt>
<wgt id='1549'> +4.1664292E-01 </wgt>
<wgt id='1550'> +4.1568789E-01 </wgt>
<wgt id='1551'> +4.1371669E-01 </wgt>
<wgt id='1552'> +4.1275959E-01 </wgt>
<wgt id='1553'> +4.1754917E-01 </wgt>
<wgt id='1554'> +4.2069278E-01 </wgt>
<wgt id='1555'> +4.0686254E-01 </wgt>
<wgt id='1556'> +4.1417352E-01 </wgt>
<wgt id='1557'> +4.1651042E-01 </wgt>
<wgt id='1558'> +4.1241152E-01 </wgt>
<wgt id='1559'> +4.1890589E-01 </wgt>
<wgt id='1560'> +4.2108704E-01 </wgt>
<wgt id='1561'> +4.1339509E-01 </wgt>
<wgt id='1562'> +4.1474568E-01 </wgt>
<wgt id='1563'> +4.1682535E-01 </wgt>
<wgt id='1564'> +4.1566233E-01 </wgt>
<wgt id='1565'> +4.1386784E-01 </wgt>
<wgt id='1566'> +4.1729529E-01 </wgt>
<wgt id='1567'> +4.1559215E-01 </wgt>
<wgt id='1568'> +4.1813610E-01 </wgt>
<wgt id='1569'> +4.1778295E-01 </wgt>
<wgt id='1570'> +4.1729391E-01 </wgt>
<wgt id='1571'> +4.1674566E-01 </wgt>
<wgt id='1572'> +4.1624286E-01 </wgt>
<wgt id='1573'> +4.1472001E-01 </wgt>
<wgt id='1574'> +4.1359105E-01 </wgt>
<wgt id='1575'> +4.1282320E-01 </wgt>
<wgt id='1576'> +4.1559215E-01 </wgt>
<wgt id='1577'> +4.1625672E-01 </wgt>
<wgt id='1578'> +4.1589468E-01 </wgt>
<wgt id='1579'> +4.1539577E-01 </wgt>
<wgt id='1580'> +4.1524373E-01 </wgt>
<wgt id='1581'> +4.0596374E-01 </wgt>
<wgt id='1582'> +4.0593325E-01 </wgt>
<wgt id='1583'> +4.0931400E-01 </wgt>
<wgt id='1584'> +4.0466964E-01 </wgt>
<wgt id='1585'> +4.0446866E-01 </wgt>
<wgt id='1586'> +4.0441515E-01 </wgt>
<wgt id='1587'> +4.0712694E-01 </wgt>
<wgt id='1588'> +3.9979930E-01 </wgt>
<wgt id='1589'> +4.0540037E-01 </wgt>
<wgt id='1590'> +4.0078772E-01 </wgt>
<wgt id='1591'> +4.0528038E-01 </wgt>
<wgt id='1592'> +4.0019924E-01 </wgt>
<wgt id='1593'> +4.0587922E-01 </wgt>
<wgt id='1594'> +4.0036966E-01 </wgt>
<wgt id='1595'> +4.0738534E-01 </wgt>
<wgt id='1596'> +4.0691047E-01 </wgt>
<wgt id='1597'> +4.0517425E-01 </wgt>
<wgt id='1598'> +4.0623576E-01 </wgt>
<wgt id='1599'> +4.1358937E-01 </wgt>
<wgt id='1600'> +4.0642796E-01 </wgt>
<wgt id='1601'> +4.0488732E-01 </wgt>
<wgt id='1602'> +4.0575929E-01 </wgt>
<wgt id='1603'> +4.0552780E-01 </wgt>
<wgt id='1604'> +4.0915380E-01 </wgt>
<wgt id='1605'> +4.0565009E-01 </wgt>
<wgt id='1606'> +4.0600759E-01 </wgt>
<wgt id='1607'> +4.0654926E-01 </wgt>
<wgt id='1608'> +4.0344685E-01 </wgt>
<wgt id='1609'> +4.0536131E-01 </wgt>
<wgt id='1610'> +4.0565336E-01 </wgt>
<wgt id='1611'> +4.0575653E-01 </wgt>
<wgt id='1612'> +3.9306598E-01 </wgt>
<wgt id='1613'> +3.9237465E-01 </wgt>
<wgt id='1614'> +3.9390290E-01 </wgt>
<wgt id='1615'> +3.9347246E-01 </wgt>
<wgt id='1616'> +3.9270992E-01 </wgt>
<wgt id='1617'> +3.9304246E-01 </wgt>
<wgt id='1618'> +3.9376346E-01 </wgt>
<wgt id='1619'> +3.9343408E-01 </wgt>
<wgt id='1620'> +3.9356856E-01 </wgt>
<wgt id='1621'> +3.9184854E-01 </wgt>
<wgt id='1622'> +3.9347679E-01 </wgt>
<wgt id='1623'> +3.9120763E-01 </wgt>
<wgt id='1624'> +3.9140260E-01 </wgt>
<wgt id='1625'> +3.9133360E-01 </wgt>
<wgt id='1626'> +3.9156983E-01 </wgt>
<wgt id='1627'> +3.9260106E-01 </wgt>
<wgt id='1628'> +3.9364670E-01 </wgt>
<wgt id='1629'> +3.9293813E-01 </wgt>
<wgt id='1630'> +3.9161166E-01 </wgt>
<wgt id='1631'> +3.9209053E-01 </wgt>
<wgt id='1632'> +3.9050075E-01 </wgt>
<wgt id='1633'> +3.9338578E-01 </wgt>
<wgt id='1634'> +3.9177589E-01 </wgt>
<wgt id='1635'> +3.9148909E-01 </wgt>
<wgt id='1636'> +3.9438846E-01 </wgt>
<wgt id='1637'> +3.9100333E-01 </wgt>
<wgt id='1638'> +3.9281496E-01 </wgt>
<wgt id='1639'> +3.9519362E-01 </wgt>
<wgt id='1640'> +3.9454779E-01 </wgt>
<wgt id='1641'> +3.9094793E-01 </wgt>
<wgt id='1642'> +3.9143659E-01 </wgt>
<wgt id='1643'> +3.9216611E-01 </wgt>
<wgt id='1644'> +3.9228259E-01 </wgt>
<wgt id='1645'> +3.9403137E-01 </wgt>
<wgt id='1646'> +3.9249130E-01 </wgt>
<wgt id='1647'> +3.9244111E-01 </wgt>
<wgt id='1648'> +3.9231349E-01 </wgt>
<wgt id='1649'> +3.9407448E-01 </wgt>
<wgt id='1650'> +3.9205685E-01 </wgt>
<wgt id='1651'> +3.9358636E-01 </wgt>
<wgt id='1652'> +3.9320034E-01 </wgt>
<wgt id='1653'> +3.9136250E-01 </wgt>
<wgt id='1654'> +3.9072715E-01 </wgt>
<wgt id='1655'> +3.9460181E-01 </wgt>
<wgt id='1656'> +3.9380378E-01 </wgt>
<wgt id='1657'> +3.9297714E-01 </wgt>
<wgt id='1658'> +3.9326979E-01 </wgt>
<wgt id='1659'> +3.9284089E-01 </wgt>
<wgt id='1660'> +3.9263334E-01 </wgt>
<wgt id='1661'> +3.9272478E-01 </wgt>
<wgt id='1662'> +3.9585013E-01 </wgt>
<wgt id='1663'> +3.9575677E-01 </wgt>
<wgt id='1664'> +3.9210087E-01 </wgt>
<wgt id='1665'> +3.9397685E-01 </wgt>
<wgt id='1666'> +3.9409904E-01 </wgt>
<wgt id='1667'> +3.9542175E-01 </wgt>
<wgt id='1668'> +3.9346729E-01 </wgt>
<wgt id='1669'> +3.9191615E-01 </wgt>
<wgt id='1670'> +3.9221246E-01 </wgt>
<wgt id='1671'> +3.9256885E-01 </wgt>
<wgt id='1672'> +3.9209082E-01 </wgt>
<wgt id='1673'> +3.9197387E-01 </wgt>
<wgt id='1674'> +3.9214470E-01 </wgt>
<wgt id='1675'> +3.9216653E-01 </wgt>
<wgt id='1676'> +3.9418044E-01 </wgt>
<wgt id='1677'> +3.9329940E-01 </wgt>
<wgt id='1678'> +3.9192763E-01 </wgt>
<wgt id='1679'> +3.9211622E-01 </wgt>
<wgt id='1680'> +3.9148413E-01 </wgt>
<wgt id='1681'> +3.9432539E-01 </wgt>
<wgt id='1682'> +3.9235357E-01 </wgt>
<wgt id='1683'> +3.9324488E-01 </wgt>
<wgt id='1684'> +3.9258040E-01 </wgt>
<wgt id='1685'> +3.9400813E-01 </wgt>
<wgt id='1686'> +3.9293520E-01 </wgt>
<wgt id='1687'> +3.9321530E-01 </wgt>
<wgt id='1688'> +3.9274143E-01 </wgt>
<wgt id='1689'> +3.9237721E-01 </wgt>
<wgt id='1690'> +3.9245872E-01 </wgt>
<wgt id='1691'> +3.9191628E-01 </wgt>
<wgt id='1692'> +3.9334524E-01 </wgt>
<wgt id='1693'> +3.9332467E-01 </wgt>
<wgt id='1694'> +3.9346553E-01 </wgt>
<wgt id='1695'> +3.9194637E-01 </wgt>
<wgt id='1696'> +3.9313064E-01 </wgt>
<wgt id='1697'> +3.9261035E-01 </wgt>
<wgt id='1698'> +3.9244929E-01 </wgt>
<wgt id='1699'> +3.9351696E-01 </wgt>
<wgt id='1700'> +3.9313540E-01 </wgt>
<wgt id='1701'> +3.9300949E-01 </wgt>
<wgt id='1702'> +3.9324218E-01 </wgt>
<wgt id='1703'> +3.9290374E-01 </wgt>
<wgt id='1704'> +3.9285931E-01 </wgt>
<wgt id='1705'> +3.9216287E-01 </wgt>
<wgt id='1706'> +3.9320794E-01 </wgt>
<wgt id='1707'> +3.9339587E-01 </wgt>
<wgt id='1708'> +3.9329610E-01 </wgt>
<wgt id='1709'> +3.9329809E-01 </wgt>
<wgt id='1710'> +3.9270700E-01 </wgt>
<wgt id='1711'> +3.9275773E-01 </wgt>
<wgt id='1712'> +3.9265577E-01 </wgt>
<wgt id='1713'> +3.8775915E-01 </wgt>
<wgt id='1714'> +3.9867749E-01 </wgt>
<wgt id='1715'> +3.7347730E-01 </wgt>
<wgt id='1716'> +3.6937710E-01 </wgt>
<wgt id='1717'> +3.8714560E-01 </wgt>
<wgt id='1718'> +3.7573182E-01 </wgt>
<wgt id='1719'> +3.6397029E-01 </wgt>
<wgt id='1720'> +3.9167185E-01 </wgt>
<wgt id='1721'> +3.7147488E-01 </wgt>
<wgt id='1722'> +3.8495481E-01 </wgt>
<wgt id='1723'> +3.7746029E-01 </wgt>
<wgt id='1724'> +3.8237218E-01 </wgt>
<wgt id='1725'> +3.6713395E-01 </wgt>
<wgt id='1726'> +3.7302055E-01 </wgt>
<wgt id='1727'> +3.7151480E-01 </wgt>
<wgt id='1728'> +3.7592310E-01 </wgt>
<wgt id='1729'> +3.6383467E-01 </wgt>
<wgt id='1730'> +3.5014483E-01 </wgt>
<wgt id='1731'> +3.4957471E-01 </wgt>
<wgt id='1732'> +3.5896111E-01 </wgt>
<wgt id='1733'> +3.8000129E-01 </wgt>
<wgt id='1734'> +4.0495624E-01 </wgt>
<wgt id='1735'> +3.6091415E-01 </wgt>
<wgt id='1736'> +3.8874703E-01 </wgt>
<wgt id='1737'> +3.6847459E-01 </wgt>
<wgt id='1738'> +3.8838172E-01 </wgt>
<wgt id='1739'> +3.8091494E-01 </wgt>
<wgt id='1740'> +3.7918862E-01 </wgt>
<wgt id='1741'> +3.4929373E-01 </wgt>
<wgt id='1742'> +3.7215652E-01 </wgt>
<wgt id='1743'> +3.6603698E-01 </wgt>
<wgt id='1744'> +3.6887085E-01 </wgt>
<wgt id='1745'> +3.7987668E-01 </wgt>
<wgt id='1746'> +3.5515820E-01 </wgt>
<wgt id='1747'> +3.8057134E-01 </wgt>
<wgt id='1748'> +3.6541990E-01 </wgt>
<wgt id='1749'> +3.7033230E-01 </wgt>
<wgt id='1750'> +3.6656928E-01 </wgt>
<wgt id='1751'> +3.7990065E-01 </wgt>
<wgt id='1752'> +3.7657635E-01 </wgt>
<wgt id='1753'> +3.8554243E-01 </wgt>
<wgt id='1754'> +3.7520065E-01 </wgt>
<wgt id='1755'> +3.6348597E-01 </wgt>
<wgt id='1756'> +3.8773899E-01 </wgt>
<wgt id='1757'> +3.6350928E-01 </wgt>
<wgt id='1758'> +3.8537967E-01 </wgt>
<wgt id='1759'> +3.9807500E-01 </wgt>
<wgt id='1760'> +3.8772871E-01 </wgt>
<wgt id='1761'> +3.8001079E-01 </wgt>
<wgt id='1762'> +3.7151480E-01 </wgt>
<wgt id='1763'> +3.7001765E-01 </wgt>
<wgt id='1764'> +3.8899777E-01 </wgt>
<wgt id='1765'> +3.6979277E-01 </wgt>
<wgt id='1766'> +3.6772798E-01 </wgt>
<wgt id='1767'> +3.8177664E-01 </wgt>
<wgt id='1768'> +3.3589553E-01 </wgt>
<wgt id='1769'> +3.6459989E-01 </wgt>
<wgt id='1770'> +3.7891976E-01 </wgt>
<wgt id='1771'> +3.7055043E-01 </wgt>
<wgt id='1772'> +3.9552064E-01 </wgt>
<wgt id='1773'> +3.6927329E-01 </wgt>
<wgt id='1774'> +3.7408645E-01 </wgt>
<wgt id='1775'> +3.7528668E-01 </wgt>
<wgt id='1776'> +3.8048156E-01 </wgt>
<wgt id='1777'> +3.8593459E-01 </wgt>
<wgt id='1778'> +3.7992924E-01 </wgt>
<wgt id='1779'> +3.6803063E-01 </wgt>
<wgt id='1780'> +3.7035271E-01 </wgt>
<wgt id='1781'> +3.7352442E-01 </wgt>
<wgt id='1782'> +3.7414463E-01 </wgt>
<wgt id='1783'> +3.7348895E-01 </wgt>
<wgt id='1784'> +3.6582668E-01 </wgt>
<wgt id='1785'> +3.7004428E-01 </wgt>
<wgt id='1786'> +3.9196314E-01 </wgt>
<wgt id='1787'> +3.7377181E-01 </wgt>
<wgt id='1788'> +3.7974055E-01 </wgt>
<wgt id='1789'> +3.6760406E-01 </wgt>
<wgt id='1790'> +3.5883805E-01 </wgt>
<wgt id='1791'> +3.5268684E-01 </wgt>
<wgt id='1792'> +3.7340638E-01 </wgt>
<wgt id='1793'> +3.8598495E-01 </wgt>
<wgt id='1794'> +3.7293475E-01 </wgt>
<wgt id='1795'> +3.7401474E-01 </wgt>
<wgt id='1796'> +3.5495834E-01 </wgt>
<wgt id='1797'> +3.6851545E-01 </wgt>
<wgt id='1798'> +3.7812067E-01 </wgt>
<wgt id='1799'> +3.6534654E-01 </wgt>
<wgt id='1800'> +3.7443065E-01 </wgt>
<wgt id='1801'> +3.6926366E-01 </wgt>
<wgt id='1802'> +3.7335766E-01 </wgt>
<wgt id='1803'> +3.6741778E-01 </wgt>
<wgt id='1804'> +3.7642569E-01 </wgt>
<wgt id='1805'> +3.8841548E-01 </wgt>
<wgt id='1806'> +3.8328806E-01 </wgt>
<wgt id='1807'> +3.8715247E-01 </wgt>
<wgt id='1808'> +3.6431066E-01 </wgt>
<wgt id='1809'> +3.7350810E-01 </wgt>
<wgt id='1810'> +3.7261263E-01 </wgt>
<wgt id='1811'> +3.8046860E-01 </wgt>
<wgt id='1812'> +3.6554308E-01 </wgt>
<wgt id='1813'> +3.8559019E-01 </wgt>
<wgt id='1814'> +3.3805069E-01 </wgt>
<wgt id='1815'> +3.6770825E-01 </wgt>
<wgt id='1816'> +4.0161579E-01 </wgt>
<wgt id='1817'> +4.0502820E-01 </wgt>
<wgt id='1818'> +4.0447795E-01 </wgt>
<wgt id='1819'> +4.1263225E-01 </wgt>
<wgt id='1820'> +3.9016273E-01 </wgt>
<wgt id='1821'> +4.1632164E-01 </wgt>
<wgt id='1822'> +3.9517410E-01 </wgt>
<wgt id='1823'> +4.0756451E-01 </wgt>
<wgt id='1824'> +4.1707229E-01 </wgt>
<wgt id='1825'> +4.0282399E-01 </wgt>
<wgt id='1826'> +4.2380655E-01 </wgt>
<wgt id='1827'> +3.9972005E-01 </wgt>
<wgt id='1828'> +3.9358628E-01 </wgt>
<wgt id='1829'> +3.8570947E-01 </wgt>
<wgt id='1830'> +4.0576321E-01 </wgt>
<wgt id='1831'> +4.0808410E-01 </wgt>
<wgt id='1832'> +4.1472237E-01 </wgt>
<wgt id='1833'> +4.0550995E-01 </wgt>
<wgt id='1834'> +3.9041324E-01 </wgt>
<wgt id='1835'> +4.0384323E-01 </wgt>
<wgt id='1836'> +3.9426932E-01 </wgt>
<wgt id='1837'> +4.0550880E-01 </wgt>
<wgt id='1838'> +4.0427182E-01 </wgt>
<wgt id='1839'> +4.1338780E-01 </wgt>
<wgt id='1840'> +4.0236251E-01 </wgt>
<wgt id='1841'> +3.9326437E-01 </wgt>
<wgt id='1842'> +3.9189377E-01 </wgt>
<wgt id='1843'> +4.1097112E-01 </wgt>
<wgt id='1844'> +3.8697603E-01 </wgt>
<wgt id='1845'> +4.1028957E-01 </wgt>
<wgt id='1846'> +4.0291639E-01 </wgt>
<wgt id='1847'> +3.9626117E-01 </wgt>
<wgt id='1848'> +4.1040845E-01 </wgt>
<wgt id='1849'> +3.8568551E-01 </wgt>
<wgt id='1850'> +3.9032534E-01 </wgt>
<wgt id='1851'> +4.2108772E-01 </wgt>
<wgt id='1852'> +4.0764282E-01 </wgt>
<wgt id='1853'> +3.8966481E-01 </wgt>
<wgt id='1854'> +4.1928684E-01 </wgt>
<wgt id='1855'> +3.9912566E-01 </wgt>
<wgt id='1856'> +3.9060088E-01 </wgt>
<wgt id='1857'> +4.0104501E-01 </wgt>
<wgt id='1858'> +3.8953819E-01 </wgt>
<wgt id='1859'> +3.8771308E-01 </wgt>
<wgt id='1860'> +4.0187407E-01 </wgt>
<wgt id='1861'> +4.2802554E-01 </wgt>
<wgt id='1862'> +3.8818838E-01 </wgt>
<wgt id='1863'> +4.0472059E-01 </wgt>
<wgt id='1864'> +4.0792318E-01 </wgt>
<wgt id='1865'> +4.0432306E-01 </wgt>
<wgt id='1866'> +3.9847492E-01 </wgt>
<wgt id='1867'> +4.0372404E-01 </wgt>
<wgt id='1868'> +4.2076106E-01 </wgt>
<wgt id='1869'> +3.9379390E-01 </wgt>
<wgt id='1870'> +3.9408673E-01 </wgt>
<wgt id='1871'> +4.0275446E-01 </wgt>
<wgt id='1872'> +3.9113088E-01 </wgt>
<wgt id='1873'> +3.7534998E-01 </wgt>
<wgt id='1874'> +3.9396141E-01 </wgt>
<wgt id='1875'> +4.0397253E-01 </wgt>
<wgt id='1876'> +4.1224868E-01 </wgt>
<wgt id='1877'> +3.9038126E-01 </wgt>
<wgt id='1878'> +4.0199413E-01 </wgt>
<wgt id='1879'> +3.9504068E-01 </wgt>
<wgt id='1880'> +3.8900099E-01 </wgt>
<wgt id='1881'> +3.7800870E-01 </wgt>
<wgt id='1882'> +3.9444648E-01 </wgt>
<wgt id='1883'> +4.4282995E-01 </wgt>
<wgt id='1884'> +3.9165832E-01 </wgt>
<wgt id='1885'> +4.2314926E-01 </wgt>
<wgt id='1886'> +3.8162165E-01 </wgt>
<wgt id='1887'> +3.9502873E-01 </wgt>
<wgt id='1888'> +3.9760005E-01 </wgt>
<wgt id='1889'> +4.2799885E-01 </wgt>
<wgt id='1890'> +4.0328547E-01 </wgt>
<wgt id='1891'> +4.0685438E-01 </wgt>
<wgt id='1892'> +4.0388318E-01 </wgt>
<wgt id='1893'> +4.0719175E-01 </wgt>
<wgt id='1894'> +4.1006888E-01 </wgt>
<wgt id='1895'> +3.9279313E-01 </wgt>
<wgt id='1896'> +3.9894250E-01 </wgt>
<wgt id='1897'> +3.9279168E-01 </wgt>
<wgt id='1898'> +4.2402984E-01 </wgt>
<wgt id='1899'> +3.7663347E-01 </wgt>
<wgt id='1900'> +4.0716116E-01 </wgt>
<wgt id='1901'> +4.1666158E-01 </wgt>
<wgt id='1902'> +4.2277654E-01 </wgt>
<wgt id='1903'> +3.9408633E-01 </wgt>
<wgt id='1904'> +4.0291587E-01 </wgt>
<wgt id='1905'> +3.8195537E-01 </wgt>
<wgt id='1906'> +4.0762732E-01 </wgt>
<wgt id='1907'> +4.1499210E-01 </wgt>
<wgt id='1908'> +4.0238919E-01 </wgt>
<wgt id='1909'> +4.0014381E-01 </wgt>
<wgt id='1910'> +4.0978936E-01 </wgt>
<wgt id='1911'> +3.9871080E-01 </wgt>
<wgt id='1912'> +4.0022933E-01 </wgt>
<wgt id='1913'> +4.0134215E-01 </wgt>
<wgt id='1914'> +3.9458160E-01 </wgt>
<wgt id='1915'> +3.9081218E-01 </wgt>
<wgt id='1916'> +3.7165776E-01 </wgt>
<wgt id='1917'> +4.1358460E-01 </wgt>
<wgt id='1918'> +4.1587307E-01 </wgt>
<wgt id='1919'> +4.0161579E-01 </wgt>
<wgt id='1920'> +4.0502820E-01 </wgt>
<wgt id='1921'> +4.0447795E-01 </wgt>
<wgt id='1922'> +4.1263225E-01 </wgt>
<wgt id='1923'> +3.9016273E-01 </wgt>
<wgt id='1924'> +4.1632164E-01 </wgt>
<wgt id='1925'> +3.9517410E-01 </wgt>
<wgt id='1926'> +4.0756451E-01 </wgt>
<wgt id='1927'> +4.1707229E-01 </wgt>
<wgt id='1928'> +4.0282399E-01 </wgt>
<wgt id='1929'> +4.2380655E-01 </wgt>
<wgt id='1930'> +3.9972005E-01 </wgt>
<wgt id='1931'> +3.9358628E-01 </wgt>
<wgt id='1932'> +3.8570947E-01 </wgt>
<wgt id='1933'> +4.0576321E-01 </wgt>
<wgt id='1934'> +4.0808410E-01 </wgt>
<wgt id='1935'> +4.1472237E-01 </wgt>
<wgt id='1936'> +4.0550995E-01 </wgt>
<wgt id='1937'> +3.9041324E-01 </wgt>
<wgt id='1938'> +4.0384323E-01 </wgt>
<wgt id='1939'> +3.9426932E-01 </wgt>
<wgt id='1940'> +4.0550880E-01 </wgt>
<wgt id='1941'> +4.0427182E-01 </wgt>
<wgt id='1942'> +4.1338780E-01 </wgt>
<wgt id='1943'> +4.0236251E-01 </wgt>
<wgt id='1944'> +3.9326437E-01 </wgt>
<wgt id='1945'> +3.9189377E-01 </wgt>
<wgt id='1946'> +4.1097112E-01 </wgt>
<wgt id='1947'> +3.8697603E-01 </wgt>
<wgt id='1948'> +4.1028957E-01 </wgt>
<wgt id='1949'> +4.0291639E-01 </wgt>
<wgt id='1950'> +3.9626117E-01 </wgt>
<wgt id='1951'> +4.1040845E-01 </wgt>
<wgt id='1952'> +3.8568551E-01 </wgt>
<wgt id='1953'> +3.9032534E-01 </wgt>
<wgt id='1954'> +4.2108772E-01 </wgt>
<wgt id='1955'> +4.0764282E-01 </wgt>
<wgt id='1956'> +3.8966481E-01 </wgt>
<wgt id='1957'> +4.1928684E-01 </wgt>
<wgt id='1958'> +3.9912566E-01 </wgt>
<wgt id='1959'> +3.9060088E-01 </wgt>
<wgt id='1960'> +4.0104501E-01 </wgt>
<wgt id='1961'> +3.8953819E-01 </wgt>
<wgt id='1962'> +3.8771308E-01 </wgt>
<wgt id='1963'> +4.0187407E-01 </wgt>
<wgt id='1964'> +4.2802554E-01 </wgt>
<wgt id='1965'> +3.8818838E-01 </wgt>
<wgt id='1966'> +4.0472059E-01 </wgt>
<wgt id='1967'> +4.0792318E-01 </wgt>
<wgt id='1968'> +4.0432306E-01 </wgt>
<wgt id='1969'> +3.9847492E-01 </wgt>
<wgt id='1970'> +4.0372404E-01 </wgt>
<wgt id='1971'> +4.2076106E-01 </wgt>
<wgt id='1972'> +3.9379390E-01 </wgt>
<wgt id='1973'> +3.9408673E-01 </wgt>
<wgt id='1974'> +4.0275446E-01 </wgt>
<wgt id='1975'> +3.9113088E-01 </wgt>
<wgt id='1976'> +3.7534998E-01 </wgt>
<wgt id='1977'> +3.9396141E-01 </wgt>
<wgt id='1978'> +4.0397253E-01 </wgt>
<wgt id='1979'> +4.1224868E-01 </wgt>
<wgt id='1980'> +3.9038126E-01 </wgt>
<wgt id='1981'> +4.0199413E-01 </wgt>
<wgt id='1982'> +3.9504068E-01 </wgt>
<wgt id='1983'> +3.8900099E-01 </wgt>
<wgt id='1984'> +3.7800870E-01 </wgt>
<wgt id='1985'> +3.9444648E-01 </wgt>
<wgt id='1986'> +4.4282995E-01 </wgt>
<wgt id='1987'> +3.9165832E-01 </wgt>
<wgt id='1988'> +4.2314926E-01 </wgt>
<wgt id='1989'> +3.8162165E-01 </wgt>
<wgt id='1990'> +3.9502873E-01 </wgt>
<wgt id='1991'> +3.9760005E-01 </wgt>
<wgt id='1992'> +4.2799885E-01 </wgt>
<wgt id='1993'> +4.0328547E-01 </wgt>
<wgt id='1994'> +4.0685438E-01 </wgt>
<wgt id='1995'> +4.0388318E-01 </wgt>
<wgt id='1996'> +4.0719175E-01 </wgt>
<wgt id='1997'> +4.1006888E-01 </wgt>
<wgt id='1998'> +3.9279313E-01 </wgt>
<wgt id='1999'> +3.9894250E-01 </wgt>
<wgt id='2000'> +3.9279168E-01 </wgt>
<wgt id='2001'> +4.2402984E-01 </wgt>
<wgt id='2002'> +3.7663347E-01 </wgt>
<wgt id='2003'> +4.0716116E-01 </wgt>
<wgt id='2004'> +4.1666158E-01 </wgt>
<wgt id='2005'> +4.2277654E-01 </wgt>
<wgt id='2006'> +3.9408633E-01 </wgt>
<wgt id='2007'> +4.0291587E-01 </wgt>
<wgt id='2008'> +3.8195537E-01 </wgt>
<wgt id='2009'> +4.0762732E-01 </wgt>
<wgt id='2010'> +4.1499210E-01 </wgt>
<wgt id='2011'> +4.0238919E-01 </wgt>
<wgt id='2012'> +4.0014381E-01 </wgt>
<wgt id='2013'> +4.0978936E-01 </wgt>
<wgt id='2014'> +3.9871080E-01 </wgt>
<wgt id='2015'> +4.0022933E-01 </wgt>
<wgt id='2016'> +4.0134215E-01 </wgt>
<wgt id='2017'> +3.9458160E-01 </wgt>
<wgt id='2018'> +3.9081218E-01 </wgt>
<wgt id='2019'> +3.7165776E-01 </wgt>
<wgt id='2020'> +4.0063323E-01 </wgt>
<wgt id='2021'> +4.0301786E-01 </wgt>
<wgt id='2022'> +3.9341835E-01 </wgt>
</rwgt>
</event>
<event>
13      2 +3.9556008E-01 1.03834700e+02 7.81860800e-03 1.28126000e-01
       21 -1    0    0  502  503 +0.0000000000e+00 +0.0000000000e+00 +2.7572980161e+02 2.7572980161e+02 0.0000000000e+00 0.0000e+00 1.0000e+00
        3 -1    0    0  501    0 +0.0000000000e+00 +0.0000000000e+00 -1.6600482924e+03 1.6600482954e+03 1.0100000000e-01 0.0000e+00 -1.0000e+00
 -8000001  2    1    2    0  503 -1.7962916575e+01 -2.8276755013e+01 -8.6898568004e+02 1.0565311811e+03 5.9999981939e+02 0.0000e+00 0.0000e+00
        4  1    1    2  501    0 +5.0014658903e+00 +1.6762191641e+01 -6.9673628832e+02 6.9695699587e+02 1.2700000000e+00 0.0000e+00 -1.0000e+00
        5  1    1    2  502    0 +1.2961450685e+01 +1.1514563373e+01 +1.8140347761e+02 1.8228992008e+02 4.6700000000e+00 0.0000e+00 -1.0000e+00
       -6  2    3    3    0  503 -2.3846404898e+02 -1.3110379926e+02 -3.4706209872e+02 4.7351081084e+02 1.7235741580e+02 0.0000e+00 0.0000e+00
       -5  1    6    6    0  503 -1.4071711052e+02 -1.3083397737e+02 -2.3642510855e+02 3.0469242800e+02 4.6700000000e+00 0.0000e+00 1.0000e+00
      -24  2    6    6    0    0 -9.7746938459e+01 -2.6982188963e-01 -1.1063699017e+02 1.6881838284e+02 8.1881414310e+01 0.0000e+00 0.0000e+00
        1  1    8    8  504    0 -2.6558286877e+01 -3.8639815554e+00 -9.1012329080e+01 9.4886864345e+01 5.0400000000e-03 0.0000e+00 -1.0000e+00
       -2  1    8    8    0  504 -7.1188651582e+01 +3.5941596657e+00 -1.9624661090e+01 7.3931518496e+01 2.5500000000e-03 0.0000e+00 1.0000e+00
       23  2    3    3    0    0 +2.2050113240e+02 +1.0282704424e+02 -5.2192358132e+02 5.8302037026e+02 9.1183205581e+01 0.0000e+00 0.0000e+00
        3  1   11   11  505    0 +9.5467256978e+01 +7.1238340205e+00 -2.6413276633e+02 2.8094639100e+02 1.0100000000e-01 0.0000e+00 -1.0000e+00
       -3  1   11   11    0  505 +1.2503387542e+02 +9.5703210224e+01 -2.5779081499e+02 3.0207397926e+02 1.0100000000e-01 0.0000e+00 1.0000e+00
<mgrwt>
<rscale>  1 0.42674401e+02</rscale>
<asrwt>0</asrwt>
<pdfrwt beam="1">  1       21 0.42419969e-01 0.10383473e+03</pdfrwt>
<pdfrwt beam="2">  1        3 0.25539205e+00 0.17538491e+02</pdfrwt>
<totfact> 0.33786719e+01</totfact>
</mgrwt>
<rwgt>
<wgt id='1001'> +3.9556008E-01 </wgt>
<wgt id='1002'> +1.8557950E-01 </wgt>
<wgt id='1003'> +1.8552808E-01 </wgt>
<wgt id='1004'> +2.1844442E-01 </wgt>
<wgt id='1005'> +1.5295644E-01 </wgt>
<wgt id='1006'> +3.5149806E-01 </wgt>
<wgt id='1007'> +1.7123672E-01 </wgt>
<wgt id='1008'> +1.7119128E-01 </wgt>
<wgt id='1009'> +2.0007938E-01 </wgt>
<wgt id='1010'> +1.4219792E-01 </wgt>
<wgt id='1011'> +4.5283014E-01 </wgt>
<wgt id='1012'> +2.0261641E-01 </wgt>
<wgt id='1013'> +2.0255747E-01 </wgt>
<wgt id='1014'> +2.4063554E-01 </wgt>
<wgt id='1015'> +1.6551871E-01 </wgt>
<wgt id='1016'> +3.5688358E-01 </wgt>
<wgt id='1017'> +1.7138767E-01 </wgt>
<wgt id='1018'> +1.7134148E-01 </wgt>
<wgt id='1019'> +2.0255747E-01 </wgt>
<wgt id='1020'> +1.4256998E-01 </wgt>
<wgt id='1021'> +3.1712979E-01 </wgt>
<wgt id='1022'> +1.5814172E-01 </wgt>
<wgt id='1023'> +1.5810096E-01 </wgt>
<wgt id='1024'> +1.8552808E-01 </wgt>
<wgt id='1025'> +1.3254201E-01 </wgt>
<wgt id='1026'> +4.0855396E-01 </wgt>
<wgt id='1027'> +1.8712171E-01 </wgt>
<wgt id='1028'> +1.8706870E-01 </wgt>
<wgt id='1029'> +2.2313467E-01 </wgt>
<wgt id='1030'> +1.5427921E-01 </wgt>
<wgt id='1031'> +4.4267466E-01 </wgt>
<wgt id='1032'> +2.0013669E-01 </wgt>
<wgt id='1033'> +2.0007938E-01 </wgt>
<wgt id='1034'> +2.3733176E-01 </wgt>
<wgt id='1035'> +1.6517395E-01 </wgt>
<wgt id='1036'> +3.9336448E-01 </wgt>
<wgt id='1037'> +1.8466883E-01 </wgt>
<wgt id='1038'> +1.8461813E-01 </wgt>
<wgt id='1039'> +2.1737883E-01 </wgt>
<wgt id='1040'> +1.5355610E-01 </wgt>
<wgt id='1041'> +5.0676607E-01 </wgt>
<wgt id='1042'> +2.1851001E-01 </wgt>
<wgt id='1043'> +2.1844442E-01 </wgt>
<wgt id='1044'> +2.6144159E-01 </wgt>
<wgt id='1045'> +1.7873964E-01 </wgt>
<wgt id='1046'> +3.9556008E-01 </wgt>
<wgt id='1047'> +3.9556008E-01 </wgt>
<wgt id='1048'> +3.9556008E-01 </wgt>
<wgt id='1049'> +3.8341093E-01 </wgt>
<wgt id='1050'> +3.9638005E-01 </wgt>
<wgt id='1051'> +3.7235494E-01 </wgt>
<wgt id='1052'> +4.0440013E-01 </wgt>
<wgt id='1053'> +3.9264629E-01 </wgt>
<wgt id='1054'> +3.9189213E-01 </wgt>
<wgt id='1055'> +3.8483314E-01 </wgt>
<wgt id='1056'> +4.0346760E-01 </wgt>
<wgt id='1057'> +3.7345650E-01 </wgt>
<wgt id='1058'> +3.8212876E-01 </wgt>
<wgt id='1059'> +3.8304443E-01 </wgt>
<wgt id='1060'> +3.9229564E-01 </wgt>
<wgt id='1061'> +3.9326595E-01 </wgt>
<wgt id='1062'> +4.1076527E-01 </wgt>
<wgt id='1063'> +3.9282565E-01 </wgt>
<wgt id='1064'> +3.9352458E-01 </wgt>
<wgt id='1065'> +3.8758481E-01 </wgt>
<wgt id='1066'> +3.9534538E-01 </wgt>
<wgt id='1067'> +3.9577335E-01 </wgt>
<wgt id='1068'> +4.1612497E-01 </wgt>
<wgt id='1069'> +4.0082866E-01 </wgt>
<wgt id='1070'> +3.9582083E-01 </wgt>
<wgt id='1071'> +4.2781548E-01 </wgt>
<wgt id='1072'> +3.7756721E-01 </wgt>
<wgt id='1073'> +4.0467666E-01 </wgt>
<wgt id='1074'> +4.0679363E-01 </wgt>
<wgt id='1075'> +3.9623736E-01 </wgt>
<wgt id='1076'> +3.8005007E-01 </wgt>
<wgt id='1077'> +3.7222493E-01 </wgt>
<wgt id='1078'> +4.1089129E-01 </wgt>
<wgt id='1079'> +3.8771423E-01 </wgt>
<wgt id='1080'> +3.7183375E-01 </wgt>
<wgt id='1081'> +3.9318084E-01 </wgt>
<wgt id='1082'> +3.8290829E-01 </wgt>
<wgt id='1083'> +4.0025490E-01 </wgt>
<wgt id='1084'> +4.0157262E-01 </wgt>
<wgt id='1085'> +3.6858226E-01 </wgt>
<wgt id='1086'> +4.0943284E-01 </wgt>
<wgt id='1087'> +4.0029359E-01 </wgt>
<wgt id='1088'> +4.0537357E-01 </wgt>
<wgt id='1089'> +3.8441916E-01 </wgt>
<wgt id='1090'> +4.1352206E-01 </wgt>
<wgt id='1091'> +4.1360026E-01 </wgt>
<wgt id='1092'> +4.0287209E-01 </wgt>
<wgt id='1093'> +3.7731795E-01 </wgt>
<wgt id='1094'> +3.8202043E-01 </wgt>
<wgt id='1095'> +3.9392964E-01 </wgt>
<wgt id='1096'> +4.1970859E-01 </wgt>
<wgt id='1097'> +4.0439444E-01 </wgt>
<wgt id='1098'> +4.0973185E-01 </wgt>
<wgt id='1099'> +4.0268921E-01 </wgt>
<wgt id='1100'> +4.1223339E-01 </wgt>
<wgt id='1101'> +3.9660879E-01 </wgt>
<wgt id='1102'> +3.9755423E-01 </wgt>
<wgt id='1103'> +3.7768052E-01 </wgt>
<wgt id='1104'> +4.3190197E-01 </wgt>
<wgt id='1105'> +3.8467124E-01 </wgt>
<wgt id='1106'> +3.8745531E-01 </wgt>
<wgt id='1107'> +3.8907650E-01 </wgt>
<wgt id='1108'> +3.9601416E-01 </wgt>
<wgt id='1109'> +3.9028259E-01 </wgt>
<wgt id='1110'> +3.7985798E-01 </wgt>
<wgt id='1111'> +3.8984742E-01 </wgt>
<wgt id='1112'> +4.0592293E-01 </wgt>
<wgt id='1113'> +3.9769980E-01 </wgt>
<wgt id='1114'> +3.9113354E-01 </wgt>
<wgt id='1115'> +4.1144197E-01 </wgt>
<wgt id='1116'> +3.9180985E-01 </wgt>
<wgt id='1117'> +3.8148125E-01 </wgt>
<wgt id='1118'> +4.1201064E-01 </wgt>
<wgt id='1119'> +4.0454540E-01 </wgt>
<wgt id='1120'> +4.0601477E-01 </wgt>
<wgt id='1121'> +3.6595468E-01 </wgt>
<wgt id='1122'> +3.8047653E-01 </wgt>
<wgt id='1123'> +4.0102051E-01 </wgt>
<wgt id='1124'> +3.8483112E-01 </wgt>
<wgt id='1125'> +3.9064483E-01 </wgt>
<wgt id='1126'> +4.0319707E-01 </wgt>
<wgt id='1127'> +3.8751224E-01 </wgt>
<wgt id='1128'> +3.9564340E-01 </wgt>
<wgt id='1129'> +3.9431442E-01 </wgt>
<wgt id='1130'> +4.0069592E-01 </wgt>
<wgt id='1131'> +3.9141810E-01 </wgt>
<wgt id='1132'> +4.0241772E-01 </wgt>
<wgt id='1133'> +3.9563511E-01 </wgt>
<wgt id='1134'> +4.0908689E-01 </wgt>
<wgt id='1135'> +3.9605237E-01 </wgt>
<wgt id='1136'> +3.9461082E-01 </wgt>
<wgt id='1137'> +3.9250776E-01 </wgt>
<wgt id='1138'> +4.0308605E-01 </wgt>
<wgt id='1139'> +3.9840968E-01 </wgt>
<wgt id='1140'> +4.0080226E-01 </wgt>
<wgt id='1141'> +3.9329406E-01 </wgt>
<wgt id='1142'> +4.0004145E-01 </wgt>
<wgt id='1143'> +4.0514201E-01 </wgt>
<wgt id='1144'> +3.9265874E-01 </wgt>
<wgt id='1145'> +3.9354195E-01 </wgt>
<wgt id='1146'> +3.9256985E-01 </wgt>
<wgt id='1147'> +3.9443059E-01 </wgt>
<wgt id='1148'> +3.9556008E-01 </wgt>
<wgt id='1149'> +3.8598229E-01 </wgt>
<wgt id='1150'> +3.8308086E-01 </wgt>
<wgt id='1151'> +2.9659165E-01 </wgt>
<wgt id='1152'> +3.9939929E-01 </wgt>
<wgt id='1153'> +3.6199647E-01 </wgt>
<wgt id='1154'> +3.7929607E-01 </wgt>
<wgt id='1155'> +2.5335919E-01 </wgt>
<wgt id='1156'> +4.6778277E-01 </wgt>
<wgt id='1157'> +3.7116455E-01 </wgt>
<wgt id='1158'> +4.0364717E-01 </wgt>
<wgt id='1159'> +7.0468335E-01 </wgt>
<wgt id='1160'> +3.4331122E-01 </wgt>
<wgt id='1161'> +3.1809399E-01 </wgt>
<wgt id='1162'> +4.6285870E-01 </wgt>
<wgt id='1163'> +3.2188375E-01 </wgt>
<wgt id='1164'> +4.0735536E-01 </wgt>
<wgt id='1165'> +3.4302623E-01 </wgt>
<wgt id='1166'> +6.0184314E-01 </wgt>
<wgt id='1167'> +3.1003051E-01 </wgt>
<wgt id='1168'> +4.7429942E-01 </wgt>
<wgt id='1169'> +5.0135871E-01 </wgt>
<wgt id='1170'> +4.5983831E-01 </wgt>
<wgt id='1171'> +4.6151129E-01 </wgt>
<wgt id='1172'> +4.2332747E-01 </wgt>
<wgt id='1173'> +3.5774723E-01 </wgt>
<wgt id='1174'> +4.2250284E-01 </wgt>
<wgt id='1175'> +2.5690263E-01 </wgt>
<wgt id='1176'> +3.5877084E-01 </wgt>
<wgt id='1177'> +3.6007308E-01 </wgt>
<wgt id='1178'> +3.6686987E-01 </wgt>
<wgt id='1179'> +5.4386847E-01 </wgt>
<wgt id='1180'> +3.8095832E-01 </wgt>
<wgt id='1181'> +2.6997788E-01 </wgt>
<wgt id='1182'> +3.1716732E-01 </wgt>
<wgt id='1183'> +4.1986493E-01 </wgt>
<wgt id='1184'> +3.0924511E-01 </wgt>
<wgt id='1185'> +2.6315865E-01 </wgt>
<wgt id='1186'> +2.8733087E-01 </wgt>
<wgt id='1187'> +2.6472481E-01 </wgt>
<wgt id='1188'> +7.8755124E-01 </wgt>
<wgt id='1189'> +3.4036616E-01 </wgt>
<wgt id='1190'> +4.5097540E-01 </wgt>
<wgt id='1191'> +3.1664252E-01 </wgt>
<wgt id='1192'> +3.4236115E-01 </wgt>
<wgt id='1193'> +5.6157735E-01 </wgt>
<wgt id='1194'> +4.0197302E-01 </wgt>
<wgt id='1195'> +4.1303145E-01 </wgt>
<wgt id='1196'> +3.8324885E-01 </wgt>
<wgt id='1197'> +3.1361573E-01 </wgt>
<wgt id='1198'> +3.2459194E-01 </wgt>
<wgt id='1199'> +4.1584283E-01 </wgt>
<wgt id='1200'> +4.0442409E-01 </wgt>
<wgt id='1201'> +3.1752882E-01 </wgt>
<wgt id='1202'> +2.7333567E-01 </wgt>
<wgt id='1203'> +4.5608793E-01 </wgt>
<wgt id='1204'> +3.3228079E-01 </wgt>
<wgt id='1205'> +4.0943461E-01 </wgt>
<wgt id='1206'> +4.3562055E-01 </wgt>
<wgt id='1207'> +5.8310164E-01 </wgt>
<wgt id='1208'> +3.8303169E-01 </wgt>
<wgt id='1209'> +3.3509658E-01 </wgt>
<wgt id='1210'> +3.0184407E-01 </wgt>
<wgt id='1211'> +2.7854022E-01 </wgt>
<wgt id='1212'> +2.6312328E-01 </wgt>
<wgt id='1213'> +1.7631472E-01 </wgt>
<wgt id='1214'> +4.2092195E-01 </wgt>
<wgt id='1215'> +4.3481996E-01 </wgt>
<wgt id='1216'> +4.4169253E-01 </wgt>
<wgt id='1217'> +2.0596234E-01 </wgt>
<wgt id='1218'> +3.1958647E-01 </wgt>
<wgt id='1219'> +4.9997633E-01 </wgt>
<wgt id='1220'> +4.2778689E-01 </wgt>
<wgt id='1221'> +4.1570312E-01 </wgt>
<wgt id='1222'> +1.4919328E-01 </wgt>
<wgt id='1223'> +3.3990749E-01 </wgt>
<wgt id='1224'> +5.3256864E-01 </wgt>
<wgt id='1225'> +3.4041578E-01 </wgt>
<wgt id='1226'> +3.7774276E-01 </wgt>
<wgt id='1227'> +2.0743580E-01 </wgt>
<wgt id='1228'> +3.5461525E-01 </wgt>
<wgt id='1229'> +5.3687334E-01 </wgt>
<wgt id='1230'> +3.5679170E-01 </wgt>
<wgt id='1231'> +3.4302623E-01 </wgt>
<wgt id='1232'> +7.8238133E-01 </wgt>
<wgt id='1233'> +4.1315028E-01 </wgt>
<wgt id='1234'> +4.1395354E-01 </wgt>
<wgt id='1235'> +4.4888064E-01 </wgt>
<wgt id='1236'> +2.3872208E-01 </wgt>
<wgt id='1237'> +2.8680686E-01 </wgt>
<wgt id='1238'> +7.1366838E-01 </wgt>
<wgt id='1239'> +3.4664896E-01 </wgt>
<wgt id='1240'> +3.1626647E-01 </wgt>
<wgt id='1241'> +4.0943682E-01 </wgt>
<wgt id='1242'> +4.0764099E-01 </wgt>
<wgt id='1243'> +2.8828715E-01 </wgt>
<wgt id='1244'> +4.0153674E-01 </wgt>
<wgt id='1245'> +5.0681535E-01 </wgt>
<wgt id='1246'> +4.3901745E-01 </wgt>
<wgt id='1247'> +4.0084839E-01 </wgt>
<wgt id='1248'> +9.2620168E-02 </wgt>
<wgt id='1249'> +3.5675088E-01 </wgt>
<wgt id='1250'> +2.7039507E-01 </wgt>
<wgt id='1251'> +2.6755180E-01 </wgt>
<wgt id='1252'> +3.0482017E-01 </wgt>
<wgt id='1253'> +2.8404252E-01 </wgt>
<wgt id='1254'> +2.1681878E-01 </wgt>
<wgt id='1255'> +3.6101769E-01 </wgt>
<wgt id='1256'> +3.5991869E-01 </wgt>
<wgt id='1257'> +3.6167788E-01 </wgt>
<wgt id='1258'> +3.6193967E-01 </wgt>
<wgt id='1259'> +3.6055429E-01 </wgt>
<wgt id='1260'> +3.4357346E-01 </wgt>
<wgt id='1261'> +3.8456778E-01 </wgt>
<wgt id='1262'> +3.7046882E-01 </wgt>
<wgt id='1263'> +3.5497351E-01 </wgt>
<wgt id='1264'> +3.5547645E-01 </wgt>
<wgt id='1265'> +3.6482536E-01 </wgt>
<wgt id='1266'> +3.5950250E-01 </wgt>
<wgt id='1267'> +3.6251060E-01 </wgt>
<wgt id='1268'> +3.6258865E-01 </wgt>
<wgt id='1269'> +3.5936123E-01 </wgt>
<wgt id='1270'> +3.4850942E-01 </wgt>
<wgt id='1271'> +3.7554702E-01 </wgt>
<wgt id='1272'> +3.5470570E-01 </wgt>
<wgt id='1273'> +3.6586018E-01 </wgt>
<wgt id='1274'> +3.6596459E-01 </wgt>
<wgt id='1275'> +3.5501431E-01 </wgt>
<wgt id='1276'> +3.7682710E-01 </wgt>
<wgt id='1277'> +3.4492091E-01 </wgt>
<wgt id='1278'> +3.6242887E-01 </wgt>
<wgt id='1279'> +3.5952741E-01 </wgt>
<wgt id='1280'> +3.6212539E-01 </wgt>
<wgt id='1281'> +3.5780146E-01 </wgt>
<wgt id='1282'> +3.5556403E-01 </wgt>
<wgt id='1283'> +3.6483024E-01 </wgt>
<wgt id='1284'> +3.6228249E-01 </wgt>
<wgt id='1285'> +3.6008155E-01 </wgt>
<wgt id='1286'> +3.6291127E-01 </wgt>
<wgt id='1287'> +3.6083869E-01 </wgt>
<wgt id='1288'> +3.4221496E-01 </wgt>
<wgt id='1289'> +3.7650613E-01 </wgt>
<wgt id='1290'> +3.2428811E-01 </wgt>
<wgt id='1291'> +3.9928125E-01 </wgt>
<wgt id='1292'> +3.6503123E-01 </wgt>
<wgt id='1293'> +3.5586134E-01 </wgt>
<wgt id='1294'> +3.6164359E-01 </wgt>
<wgt id='1295'> +3.5743394E-01 </wgt>
<wgt id='1296'> +3.3818550E-01 </wgt>
<wgt id='1297'> +3.3979235E-01 </wgt>
<wgt id='1298'> +3.3691570E-01 </wgt>
<wgt id='1299'> +3.3322632E-01 </wgt>
<wgt id='1300'> +3.4377601E-01 </wgt>
<wgt id='1301'> +3.4402426E-01 </wgt>
<wgt id='1302'> +3.2958801E-01 </wgt>
<wgt id='1303'> +3.3476905E-01 </wgt>
<wgt id='1304'> +3.4050402E-01 </wgt>
<wgt id='1305'> +3.3256145E-01 </wgt>
<wgt id='1306'> +3.4622676E-01 </wgt>
<wgt id='1307'> +3.6641562E-01 </wgt>
<wgt id='1308'> +3.2074285E-01 </wgt>
<wgt id='1309'> +3.3925330E-01 </wgt>
<wgt id='1310'> +3.3677740E-01 </wgt>
<wgt id='1311'> +3.3776366E-01 </wgt>
<wgt id='1312'> +3.3836641E-01 </wgt>
<wgt id='1313'> +3.3301598E-01 </wgt>
<wgt id='1314'> +3.4482315E-01 </wgt>
<wgt id='1315'> +3.3936156E-01 </wgt>
<wgt id='1316'> +3.3710082E-01 </wgt>
<wgt id='1317'> +3.4516945E-01 </wgt>
<wgt id='1318'> +3.2787514E-01 </wgt>
<wgt id='1319'> +3.3284122E-01 </wgt>
<wgt id='1320'> +3.4175204E-01 </wgt>
<wgt id='1321'> +3.3694421E-01 </wgt>
<wgt id='1322'> +3.3885627E-01 </wgt>
<wgt id='1323'> +3.3605250E-01 </wgt>
<wgt id='1324'> +3.4077761E-01 </wgt>
<wgt id='1325'> +3.3014347E-01 </wgt>
<wgt id='1326'> +3.5064924E-01 </wgt>
<wgt id='1327'> +3.5464933E-01 </wgt>
<wgt id='1328'> +3.3205104E-01 </wgt>
<wgt id='1329'> +3.1214429E-01 </wgt>
<wgt id='1330'> +3.5637637E-01 </wgt>
<wgt id='1331'> +3.4086856E-01 </wgt>
<wgt id='1332'> +3.3670341E-01 </wgt>
<wgt id='1333'> +3.4065134E-01 </wgt>
<wgt id='1334'> +3.3826774E-01 </wgt>
<wgt id='1335'> +3.0267400E-01 </wgt>
<wgt id='1336'> +3.7386387E-01 </wgt>
<wgt id='1337'> +3.3818550E-01 </wgt>
<wgt id='1338'> +3.3796859E-01 </wgt>
<wgt id='1339'> +3.3812079E-01 </wgt>
<wgt id='1340'> +3.3819102E-01 </wgt>
<wgt id='1341'> +3.3845639E-01 </wgt>
<wgt id='1342'> +3.3846822E-01 </wgt>
<wgt id='1343'> +3.3854620E-01 </wgt>
<wgt id='1344'> +3.1029307E-01 </wgt>
<wgt id='1345'> +3.1179319E-01 </wgt>
<wgt id='1346'> +3.0881601E-01 </wgt>
<wgt id='1347'> +3.1053186E-01 </wgt>
<wgt id='1348'> +3.1013631E-01 </wgt>
<wgt id='1349'> +3.1171294E-01 </wgt>
<wgt id='1350'> +3.0911891E-01 </wgt>
<wgt id='1351'> +2.9883174E-01 </wgt>
<wgt id='1352'> +3.2701151E-01 </wgt>
<wgt id='1353'> +3.0020881E-01 </wgt>
<wgt id='1354'> +3.1741318E-01 </wgt>
<wgt id='1355'> +3.0415188E-01 </wgt>
<wgt id='1356'> +3.1508335E-01 </wgt>
<wgt id='1357'> +3.2473177E-01 </wgt>
<wgt id='1358'> +3.0156276E-01 </wgt>
<wgt id='1359'> +3.0960062E-01 </wgt>
<wgt id='1360'> +3.1211186E-01 </wgt>
<wgt id='1361'> +3.0757757E-01 </wgt>
<wgt id='1362'> +3.1370129E-01 </wgt>
<wgt id='1363'> +3.0931325E-01 </wgt>
<wgt id='1364'> +3.1160664E-01 </wgt>
<wgt id='1365'> +3.0969293E-01 </wgt>
<wgt id='1366'> +3.1055507E-01 </wgt>
<wgt id='1367'> +3.1157160E-01 </wgt>
<wgt id='1368'> +3.0968407E-01 </wgt>
<wgt id='1369'> +3.1884414E-01 </wgt>
<wgt id='1370'> +3.0271637E-01 </wgt>
<wgt id='1371'> +3.0920628E-01 </wgt>
<wgt id='1372'> +3.1220413E-01 </wgt>
<wgt id='1373'> +3.0116155E-01 </wgt>
<wgt id='1374'> +3.1684784E-01 </wgt>
<wgt id='1375'> +3.0958786E-01 </wgt>
<wgt id='1376'> +3.1060122E-01 </wgt>
<wgt id='1377'> +3.3090363E-01 </wgt>
<wgt id='1378'> +2.8081873E-01 </wgt>
<wgt id='1379'> +3.0825972E-01 </wgt>
<wgt id='1380'> +3.1243717E-01 </wgt>
<wgt id='1381'> +3.0602352E-01 </wgt>
<wgt id='1382'> +3.1426676E-01 </wgt>
<wgt id='1383'> +3.3219496E-01 </wgt>
<wgt id='1384'> +2.7868669E-01 </wgt>
<wgt id='1385'> +3.1029307E-01 </wgt>
<wgt id='1386'> +3.0821932E-01 </wgt>
<wgt id='1387'> +3.0898704E-01 </wgt>
<wgt id='1388'> +3.0949888E-01 </wgt>
<wgt id='1389'> +3.1018378E-01 </wgt>
<wgt id='1390'> +3.1055454E-01 </wgt>
<wgt id='1391'> +3.1078946E-01 </wgt>
<wgt id='1392'> +4.4946895E-01 </wgt>
<wgt id='1393'> +4.4981863E-01 </wgt>
<wgt id='1394'> +4.4910656E-01 </wgt>
<wgt id='1395'> +4.4983900E-01 </wgt>
<wgt id='1396'> +4.4921129E-01 </wgt>
<wgt id='1397'> +4.5184026E-01 </wgt>
<wgt id='1398'> +4.4721227E-01 </wgt>
<wgt id='1399'> +4.4545733E-01 </wgt>
<wgt id='1400'> +4.5447771E-01 </wgt>
<wgt id='1401'> +4.6032440E-01 </wgt>
<wgt id='1402'> +4.3610559E-01 </wgt>
<wgt id='1403'> +4.3324634E-01 </wgt>
<wgt id='1404'> +4.8189402E-01 </wgt>
<wgt id='1405'> +4.4108629E-01 </wgt>
<wgt id='1406'> +4.6111458E-01 </wgt>
<wgt id='1407'> +4.3397365E-01 </wgt>
<wgt id='1408'> +4.6019236E-01 </wgt>
<wgt id='1409'> +4.5767594E-01 </wgt>
<wgt id='1410'> +4.4029150E-01 </wgt>
<wgt id='1411'> +4.8214579E-01 </wgt>
<wgt id='1412'> +4.2457881E-01 </wgt>
<wgt id='1413'> +4.3734213E-01 </wgt>
<wgt id='1414'> +4.6226599E-01 </wgt>
<wgt id='1415'> +4.3618226E-01 </wgt>
<wgt id='1416'> +4.6254890E-01 </wgt>
<wgt id='1417'> +4.5477328E-01 </wgt>
<wgt id='1418'> +4.4314045E-01 </wgt>
<wgt id='1419'> +4.5446703E-01 </wgt>
<wgt id='1420'> +4.4552376E-01 </wgt>
<wgt id='1421'> +4.3590323E-01 </wgt>
<wgt id='1422'> +4.6558508E-01 </wgt>
<wgt id='1423'> +4.3148807E-01 </wgt>
<wgt id='1424'> +4.6367175E-01 </wgt>
<wgt id='1425'> +4.4624942E-01 </wgt>
<wgt id='1426'> +4.5377075E-01 </wgt>
<wgt id='1427'> +4.5191855E-01 </wgt>
<wgt id='1428'> +4.4432295E-01 </wgt>
<wgt id='1429'> +4.5686839E-01 </wgt>
<wgt id='1430'> +4.4364447E-01 </wgt>
<wgt id='1431'> +5.0871970E-01 </wgt>
<wgt id='1432'> +4.0117462E-01 </wgt>
<wgt id='1433'> +5.3704937E-01 </wgt>
<wgt id='1434'> +3.4529799E-01 </wgt>
<wgt id='1435'> +4.3883435E-01 </wgt>
<wgt id='1436'> +4.3934980E-01 </wgt>
<wgt id='1437'> +5.0876561E-01 </wgt>
<wgt id='1438'> +3.4292174E-01 </wgt>
<wgt id='1439'> +4.4333865E-01 </wgt>
<wgt id='1440'> +4.6145320E-01 </wgt>
<wgt id='1441'> +4.4569722E-01 </wgt>
<wgt id='1442'> +4.5145516E-01 </wgt>
<wgt id='1443'> +3.9378273E-01 </wgt>
<wgt id='1444'> +3.9411825E-01 </wgt>
<wgt id='1445'> +3.9342633E-01 </wgt>
<wgt id='1446'> +3.9414145E-01 </wgt>
<wgt id='1447'> +3.9356181E-01 </wgt>
<wgt id='1448'> +3.9591762E-01 </wgt>
<wgt id='1449'> +3.9182749E-01 </wgt>
<wgt id='1450'> +3.8987032E-01 </wgt>
<wgt id='1451'> +3.9819413E-01 </wgt>
<wgt id='1452'> +4.0699496E-01 </wgt>
<wgt id='1453'> +3.8096992E-01 </wgt>
<wgt id='1454'> +3.7925003E-01 </wgt>
<wgt id='1455'> +4.2527962E-01 </wgt>
<wgt id='1456'> +3.8423497E-01 </wgt>
<wgt id='1457'> +4.1085955E-01 </wgt>
<wgt id='1458'> +3.8064775E-01 </wgt>
<wgt id='1459'> +4.0125604E-01 </wgt>
<wgt id='1460'> +4.0956507E-01 </wgt>
<wgt id='1461'> +3.7535200E-01 </wgt>
<wgt id='1462'> +4.2136156E-01 </wgt>
<wgt id='1463'> +3.7006344E-01 </wgt>
<wgt id='1464'> +3.8446929E-01 </wgt>
<wgt id='1465'> +4.0600522E-01 </wgt>
<wgt id='1466'> +3.7684673E-01 </wgt>
<wgt id='1467'> +4.0490363E-01 </wgt>
<wgt id='1468'> +3.9378272E-01 </wgt>
<wgt id='1469'> +3.9408499E-01 </wgt>
<wgt id='1470'> +3.9761770E-01 </wgt>
<wgt id='1471'> +3.9118346E-01 </wgt>
<wgt id='1472'> +3.8416668E-01 </wgt>
<wgt id='1473'> +4.0546362E-01 </wgt>
<wgt id='1474'> +3.8012403E-01 </wgt>
<wgt id='1475'> +4.0971373E-01 </wgt>
<wgt id='1476'> +3.9208247E-01 </wgt>
<wgt id='1477'> +3.9555271E-01 </wgt>
<wgt id='1478'> +3.9563314E-01 </wgt>
<wgt id='1479'> +3.8957770E-01 </wgt>
<wgt id='1480'> +3.9937465E-01 </wgt>
<wgt id='1481'> +3.8961925E-01 </wgt>
<wgt id='1482'> +4.4779075E-01 </wgt>
<wgt id='1483'> +3.4284972E-01 </wgt>
<wgt id='1484'> +4.7476890E-01 </wgt>
<wgt id='1485'> +3.0159351E-01 </wgt>
<wgt id='1486'> +3.6969928E-01 </wgt>
<wgt id='1487'> +3.9263919E-01 </wgt>
<wgt id='1488'> +4.5656945E-01 </wgt>
<wgt id='1489'> +2.9455053E-01 </wgt>
<wgt id='1490'> +3.8851039E-01 </wgt>
<wgt id='1491'> +4.0432703E-01 </wgt>
<wgt id='1492'> +3.9339910E-01 </wgt>
<wgt id='1493'> +3.9408543E-01 </wgt>
<wgt id='1494'> +4.3252479E-01 </wgt>
<wgt id='1495'> +3.5874804E-01 </wgt>
<wgt id='1496'> +3.7926861E-01 </wgt>
<wgt id='1497'> +4.0129813E-01 </wgt>
<wgt id='1498'> +4.4263654E-01 </wgt>
<wgt id='1499'> +4.2444717E-01 </wgt>
<wgt id='1500'> +4.6918230E-01 </wgt>
<wgt id='1501'> +4.5821001E-01 </wgt>
<wgt id='1502'> +4.4967096E-01 </wgt>
<wgt id='1503'> +4.4183246E-01 </wgt>
<wgt id='1504'> +4.3247604E-01 </wgt>
<wgt id='1505'> +4.1365406E-01 </wgt>
<wgt id='1506'> +4.0511223E-01 </wgt>
<wgt id='1507'> +3.9676833E-01 </wgt>
<wgt id='1508'> +4.2444717E-01 </wgt>
<wgt id='1509'> +4.1629433E-01 </wgt>
<wgt id='1510'> +4.2043973E-01 </wgt>
<wgt id='1511'> +4.2817962E-01 </wgt>
<wgt id='1512'> +4.2853808E-01 </wgt>
<wgt id='1513'> +3.4400476E-01 </wgt>
<wgt id='1514'> +3.4397859E-01 </wgt>
<wgt id='1515'> +3.4402578E-01 </wgt>
<wgt id='1516'> +3.4520708E-01 </wgt>
<wgt id='1517'> +3.4281850E-01 </wgt>
<wgt id='1518'> +3.4497603E-01 </wgt>
<wgt id='1519'> +3.4361193E-01 </wgt>
<wgt id='1520'> +3.4113824E-01 </wgt>
<wgt id='1521'> +3.4687337E-01 </wgt>
<wgt id='1522'> +3.6190818E-01 </wgt>
<wgt id='1523'> +3.2682508E-01 </wgt>
<wgt id='1524'> +3.8219066E-01 </wgt>
<wgt id='1525'> +3.2737089E-01 </wgt>
<wgt id='1526'> +3.4563090E-01 </wgt>
<wgt id='1527'> +3.4202463E-01 </wgt>
<wgt id='1528'> +3.2721417E-01 </wgt>
<wgt id='1529'> +3.6214419E-01 </wgt>
<wgt id='1530'> +3.7280574E-01 </wgt>
<wgt id='1531'> +3.2786832E-01 </wgt>
<wgt id='1532'> +3.3402250E-01 </wgt>
<wgt id='1533'> +3.5748408E-01 </wgt>
<wgt id='1534'> +3.7844817E-01 </wgt>
<wgt id='1535'> +3.1990814E-01 </wgt>
<wgt id='1536'> +3.4903577E-01 </wgt>
<wgt id='1537'> +3.3919709E-01 </wgt>
<wgt id='1538'> +3.4858159E-01 </wgt>
<wgt id='1539'> +3.3250791E-01 </wgt>
<wgt id='1540'> +3.4683622E-01 </wgt>
<wgt id='1541'> +3.4144359E-01 </wgt>
<wgt id='1542'> +3.5146155E-01 </wgt>
<wgt id='1543'> +3.2497739E-01 </wgt>
<wgt id='1544'> +3.4118534E-01 </wgt>
<wgt id='1545'> +3.5034368E-01 </wgt>
<wgt id='1546'> +3.4925818E-01 </wgt>
<wgt id='1547'> +3.3419810E-01 </wgt>
<wgt id='1548'> +3.4036875E-01 </wgt>
<wgt id='1549'> +3.4584810E-01 </wgt>
<wgt id='1550'> +3.4234383E-01 </wgt>
<wgt id='1551'> +3.4635792E-01 </wgt>
<wgt id='1552'> +4.1341332E-01 </wgt>
<wgt id='1553'> +3.0284301E-01 </wgt>
<wgt id='1554'> +2.7833394E-01 </wgt>
<wgt id='1555'> +4.6493998E-01 </wgt>
<wgt id='1556'> +3.4183580E-01 </wgt>
<wgt id='1557'> +3.5313958E-01 </wgt>
<wgt id='1558'> +3.6244023E-01 </wgt>
<wgt id='1559'> +3.2446672E-01 </wgt>
<wgt id='1560'> +2.6543662E-01 </wgt>
<wgt id='1561'> +3.8711775E-01 </wgt>
<wgt id='1562'> +3.3468641E-01 </wgt>
<wgt id='1563'> +3.5057121E-01 </wgt>
<wgt id='1564'> +3.4400476E-01 </wgt>
<wgt id='1565'> +3.2594916E-01 </wgt>
<wgt id='1566'> +3.5570863E-01 </wgt>
<wgt id='1567'> +3.3982425E-01 </wgt>
<wgt id='1568'> +3.6995565E-01 </wgt>
<wgt id='1569'> +3.6306819E-01 </wgt>
<wgt id='1570'> +3.5650225E-01 </wgt>
<wgt id='1571'> +3.5092428E-01 </wgt>
<wgt id='1572'> +3.4558827E-01 </wgt>
<wgt id='1573'> +3.3528540E-01 </wgt>
<wgt id='1574'> +3.3797983E-01 </wgt>
<wgt id='1575'> +3.3264628E-01 </wgt>
<wgt id='1576'> +3.3982425E-01 </wgt>
<wgt id='1577'> +3.3277528E-01 </wgt>
<wgt id='1578'> +3.3633108E-01 </wgt>
<wgt id='1579'> +3.4293431E-01 </wgt>
<wgt id='1580'> +3.4573679E-01 </wgt>
<wgt id='1581'> +3.4820783E-01 </wgt>
<wgt id='1582'> +3.3882544E-01 </wgt>
<wgt id='1583'> +3.4589244E-01 </wgt>
<wgt id='1584'> +3.4417610E-01 </wgt>
<wgt id='1585'> +3.5553177E-01 </wgt>
<wgt id='1586'> +4.3363675E-01 </wgt>
<wgt id='1587'> +3.5937768E-01 </wgt>
<wgt id='1588'> +3.6047047E-01 </wgt>
<wgt id='1589'> +3.5214645E-01 </wgt>
<wgt id='1590'> +3.6043316E-01 </wgt>
<wgt id='1591'> +3.4339664E-01 </wgt>
<wgt id='1592'> +3.4473011E-01 </wgt>
<wgt id='1593'> +3.6211450E-01 </wgt>
<wgt id='1594'> +3.5932349E-01 </wgt>
<wgt id='1595'> +3.4159703E-01 </wgt>
<wgt id='1596'> +3.6368218E-01 </wgt>
<wgt id='1597'> +3.4419533E-01 </wgt>
<wgt id='1598'> +3.6728360E-01 </wgt>
<wgt id='1599'> +3.1625904E-01 </wgt>
<wgt id='1600'> +3.5346615E-01 </wgt>
<wgt id='1601'> +3.7179295E-01 </wgt>
<wgt id='1602'> +3.5060043E-01 </wgt>
<wgt id='1603'> +3.3828692E-01 </wgt>
<wgt id='1604'> +3.3960326E-01 </wgt>
<wgt id='1605'> +3.5474956E-01 </wgt>
<wgt id='1606'> +3.4465111E-01 </wgt>
<wgt id='1607'> +3.5551385E-01 </wgt>
<wgt id='1608'> +3.4062048E-01 </wgt>
<wgt id='1609'> +3.6410523E-01 </wgt>
<wgt id='1610'> +3.4982087E-01 </wgt>
<wgt id='1611'> +3.5187894E-01 </wgt>
<wgt id='1612'> +3.9558654E-01 </wgt>
<wgt id='1613'> +4.0076432E-01 </wgt>
<wgt id='1614'> +3.9427181E-01 </wgt>
<wgt id='1615'> +3.9308490E-01 </wgt>
<wgt id='1616'> +3.8912032E-01 </wgt>
<wgt id='1617'> +3.9987999E-01 </wgt>
<wgt id='1618'> +3.8687942E-01 </wgt>
<wgt id='1619'> +3.9453740E-01 </wgt>
<wgt id='1620'> +3.9370060E-01 </wgt>
<wgt id='1621'> +3.9346959E-01 </wgt>
<wgt id='1622'> +3.9158266E-01 </wgt>
<wgt id='1623'> +3.9395076E-01 </wgt>
<wgt id='1624'> +3.9734421E-01 </wgt>
<wgt id='1625'> +3.9082110E-01 </wgt>
<wgt id='1626'> +3.8788291E-01 </wgt>
<wgt id='1627'> +4.0088266E-01 </wgt>
<wgt id='1628'> +3.9464271E-01 </wgt>
<wgt id='1629'> +3.9312088E-01 </wgt>
<wgt id='1630'> +3.9861814E-01 </wgt>
<wgt id='1631'> +3.8662618E-01 </wgt>
<wgt id='1632'> +3.9328008E-01 </wgt>
<wgt id='1633'> +3.9417378E-01 </wgt>
<wgt id='1634'> +3.8906955E-01 </wgt>
<wgt id='1635'> +3.9744847E-01 </wgt>
<wgt id='1636'> +3.8717816E-01 </wgt>
<wgt id='1637'> +3.8695316E-01 </wgt>
<wgt id='1638'> +4.0231786E-01 </wgt>
<wgt id='1639'> +3.8782747E-01 </wgt>
<wgt id='1640'> +3.9059126E-01 </wgt>
<wgt id='1641'> +4.3386417E-01 </wgt>
<wgt id='1642'> +4.1564900E-01 </wgt>
<wgt id='1643'> +3.9879014E-01 </wgt>
<wgt id='1644'> +4.1877203E-01 </wgt>
<wgt id='1645'> +3.9103186E-01 </wgt>
<wgt id='1646'> +3.9362095E-01 </wgt>
<wgt id='1647'> +3.8857475E-01 </wgt>
<wgt id='1648'> +3.8630026E-01 </wgt>
<wgt id='1649'> +3.8878437E-01 </wgt>
<wgt id='1650'> +4.0679827E-01 </wgt>
<wgt id='1651'> +4.0170609E-01 </wgt>
<wgt id='1652'> +3.9574446E-01 </wgt>
<wgt id='1653'> +4.0403363E-01 </wgt>
<wgt id='1654'> +4.0215893E-01 </wgt>
<wgt id='1655'> +4.0376044E-01 </wgt>
<wgt id='1656'> +3.8205572E-01 </wgt>
<wgt id='1657'> +4.0626771E-01 </wgt>
<wgt id='1658'> +3.8715558E-01 </wgt>
<wgt id='1659'> +3.8483396E-01 </wgt>
<wgt id='1660'> +3.9327614E-01 </wgt>
<wgt id='1661'> +3.7761991E-01 </wgt>
<wgt id='1662'> +3.7268091E-01 </wgt>
<wgt id='1663'> +3.6667235E-01 </wgt>
<wgt id='1664'> +3.9722491E-01 </wgt>
<wgt id='1665'> +3.9228784E-01 </wgt>
<wgt id='1666'> +3.8687030E-01 </wgt>
<wgt id='1667'> +3.8150355E-01 </wgt>
<wgt id='1668'> +3.9184887E-01 </wgt>
<wgt id='1669'> +4.0860626E-01 </wgt>
<wgt id='1670'> +4.3091215E-01 </wgt>
<wgt id='1671'> +4.1793800E-01 </wgt>
<wgt id='1672'> +4.1786067E-01 </wgt>
<wgt id='1673'> +4.1271954E-01 </wgt>
<wgt id='1674'> +4.1729261E-01 </wgt>
<wgt id='1675'> +3.9648399E-01 </wgt>
<wgt id='1676'> +3.8771494E-01 </wgt>
<wgt id='1677'> +4.1733471E-01 </wgt>
<wgt id='1678'> +3.7596470E-01 </wgt>
<wgt id='1679'> +4.1588393E-01 </wgt>
<wgt id='1680'> +4.0117805E-01 </wgt>
<wgt id='1681'> +3.9522183E-01 </wgt>
<wgt id='1682'> +3.8984990E-01 </wgt>
<wgt id='1683'> +3.8649231E-01 </wgt>
<wgt id='1684'> +3.9309452E-01 </wgt>
<wgt id='1685'> +3.7716144E-01 </wgt>
<wgt id='1686'> +4.0162920E-01 </wgt>
<wgt id='1687'> +4.0587786E-01 </wgt>
<wgt id='1688'> +4.0404000E-01 </wgt>
<wgt id='1689'> +4.0677629E-01 </wgt>
<wgt id='1690'> +3.9314930E-01 </wgt>
<wgt id='1691'> +3.9942112E-01 </wgt>
<wgt id='1692'> +3.9268231E-01 </wgt>
<wgt id='1693'> +3.8292594E-01 </wgt>
<wgt id='1694'> +3.8743561E-01 </wgt>
<wgt id='1695'> +3.9929505E-01 </wgt>
<wgt id='1696'> +4.0073652E-01 </wgt>
<wgt id='1697'> +3.8115840E-01 </wgt>
<wgt id='1698'> +3.9392338E-01 </wgt>
<wgt id='1699'> +3.9025986E-01 </wgt>
<wgt id='1700'> +4.0126407E-01 </wgt>
<wgt id='1701'> +4.0006054E-01 </wgt>
<wgt id='1702'> +4.0121329E-01 </wgt>
<wgt id='1703'> +4.0374146E-01 </wgt>
<wgt id='1704'> +4.0123611E-01 </wgt>
<wgt id='1705'> +3.9141702E-01 </wgt>
<wgt id='1706'> +4.0363262E-01 </wgt>
<wgt id='1707'> +3.9281743E-01 </wgt>
<wgt id='1708'> +3.9827939E-01 </wgt>
<wgt id='1709'> +4.0521646E-01 </wgt>
<wgt id='1710'> +3.9678903E-01 </wgt>
<wgt id='1711'> +3.9646689E-01 </wgt>
<wgt id='1712'> +3.9893827E-01 </wgt>
<wgt id='1713'> +3.8936144E-01 </wgt>
<wgt id='1714'> +4.2428640E-01 </wgt>
<wgt id='1715'> +4.2319363E-01 </wgt>
<wgt id='1716'> +5.1404155E-01 </wgt>
<wgt id='1717'> +5.2591219E-01 </wgt>
<wgt id='1718'> +4.3868089E-01 </wgt>
<wgt id='1719'> +5.6956751E-01 </wgt>
<wgt id='1720'> +2.9607945E-01 </wgt>
<wgt id='1721'> +5.7739335E-01 </wgt>
<wgt id='1722'> +2.9114856E-01 </wgt>
<wgt id='1723'> +4.7658145E-01 </wgt>
<wgt id='1724'> +4.9513522E-01 </wgt>
<wgt id='1725'> +4.6355621E-01 </wgt>
<wgt id='1726'> +2.3607966E-01 </wgt>
<wgt id='1727'> +4.8964861E-01 </wgt>
<wgt id='1728'> +3.3241345E-01 </wgt>
<wgt id='1729'> +4.2519946E-01 </wgt>
<wgt id='1730'> +7.2183301E-01 </wgt>
<wgt id='1731'> +8.8998868E-01 </wgt>
<wgt id='1732'> +4.2362298E-01 </wgt>
<wgt id='1733'> +3.1038009E-01 </wgt>
<wgt id='1734'> +3.0029975E-01 </wgt>
<wgt id='1735'> +6.4993361E-01 </wgt>
<wgt id='1736'> +3.9350861E-01 </wgt>
<wgt id='1737'> +3.5244186E-01 </wgt>
<wgt id='1738'> +4.3683638E-01 </wgt>
<wgt id='1739'> +2.6351942E-01 </wgt>
<wgt id='1740'> +3.1051132E-01 </wgt>
<wgt id='1741'> +5.3818460E-01 </wgt>
<wgt id='1742'> +4.4005422E-01 </wgt>
<wgt id='1743'> +4.3212528E-01 </wgt>
<wgt id='1744'> +3.9847503E-01 </wgt>
<wgt id='1745'> +5.2010386E-01 </wgt>
<wgt id='1746'> +5.5876093E-01 </wgt>
<wgt id='1747'> +4.4497564E-01 </wgt>
<wgt id='1748'> +4.4834099E-01 </wgt>
<wgt id='1749'> +3.5340189E-01 </wgt>
<wgt id='1750'> +4.2496654E-01 </wgt>
<wgt id='1751'> +3.5654855E-01 </wgt>
<wgt id='1752'> +3.8404139E-01 </wgt>
<wgt id='1753'> +3.4171639E-01 </wgt>
<wgt id='1754'> +3.5648096E-01 </wgt>
<wgt id='1755'> +3.0143907E-01 </wgt>
<wgt id='1756'> +4.6952175E-01 </wgt>
<wgt id='1757'> +3.8598561E-01 </wgt>
<wgt id='1758'> +2.3030952E-01 </wgt>
<wgt id='1759'> +5.0695354E-01 </wgt>
<wgt id='1760'> +3.0224893E-01 </wgt>
<wgt id='1761'> +3.3146045E-01 </wgt>
<wgt id='1762'> +4.8964861E-01 </wgt>
<wgt id='1763'> +5.6648497E-01 </wgt>
<wgt id='1764'> +3.3909133E-01 </wgt>
<wgt id='1765'> +4.1878489E-01 </wgt>
<wgt id='1766'> +3.8839347E-01 </wgt>
<wgt id='1767'> +2.9529793E-01 </wgt>
<wgt id='1768'> +8.3986073E-01 </wgt>
<wgt id='1769'> +3.5784296E-01 </wgt>
<wgt id='1770'> +2.7992556E-01 </wgt>
<wgt id='1771'> +4.0005275E-01 </wgt>
<wgt id='1772'> +4.0746389E-01 </wgt>
<wgt id='1773'> +3.1048612E-01 </wgt>
<wgt id='1774'> +5.1205350E-01 </wgt>
<wgt id='1775'> +5.5613855E-01 </wgt>
<wgt id='1776'> +4.9793980E-01 </wgt>
<wgt id='1777'> +4.5320741E-01 </wgt>
<wgt id='1778'> +2.5024894E-01 </wgt>
<wgt id='1779'> +4.5054546E-01 </wgt>
<wgt id='1780'> +5.7281130E-01 </wgt>
<wgt id='1781'> +4.7313164E-01 </wgt>
<wgt id='1782'> +4.6340669E-01 </wgt>
<wgt id='1783'> +2.6702077E-01 </wgt>
<wgt id='1784'> +3.3902041E-01 </wgt>
<wgt id='1785'> +3.5752559E-01 </wgt>
<wgt id='1786'> +3.9000317E-01 </wgt>
<wgt id='1787'> +3.0573989E-01 </wgt>
<wgt id='1788'> +3.4111778E-01 </wgt>
<wgt id='1789'> +3.6946703E-01 </wgt>
<wgt id='1790'> +3.3416861E-01 </wgt>
<wgt id='1791'> +8.6410017E-01 </wgt>
<wgt id='1792'> +4.3443940E-01 </wgt>
<wgt id='1793'> +3.8679256E-01 </wgt>
<wgt id='1794'> +5.5929365E-01 </wgt>
<wgt id='1795'> +3.6296927E-01 </wgt>
<wgt id='1796'> +1.8435502E-01 </wgt>
<wgt id='1797'> +3.3362985E-01 </wgt>
<wgt id='1798'> +5.1678425E-01 </wgt>
<wgt id='1799'> +4.8775649E-01 </wgt>
<wgt id='1800'> +4.8578364E-01 </wgt>
<wgt id='1801'> +5.9844479E-01 </wgt>
<wgt id='1802'> +3.0435158E-01 </wgt>
<wgt id='1803'> +4.7203260E-01 </wgt>
<wgt id='1804'> +3.7542061E-01 </wgt>
<wgt id='1805'> +4.1972088E-01 </wgt>
<wgt id='1806'> +3.5279821E-01 </wgt>
<wgt id='1807'> +3.6914153E-01 </wgt>
<wgt id='1808'> +4.9875777E-01 </wgt>
<wgt id='1809'> +4.3215828E-01 </wgt>
<wgt id='1810'> +3.2381605E-01 </wgt>
<wgt id='1811'> +2.9832293E-01 </wgt>
<wgt id='1812'> +4.1168008E-01 </wgt>
<wgt id='1813'> +2.8850927E-01 </wgt>
<wgt id='1814'> +5.1600647E-01 </wgt>
<wgt id='1815'> +3.0865730E-01 </wgt>
<wgt id='1816'> +3.6884749E-01 </wgt>
<wgt id='1817'> +3.4730064E-01 </wgt>
<wgt id='1818'> +2.6140624E-01 </wgt>
<wgt id='1819'> +3.1490942E-01 </wgt>
<wgt id='1820'> +3.8007933E-01 </wgt>
<wgt id='1821'> +3.8699251E-01 </wgt>
<wgt id='1822'> +2.4308945E-01 </wgt>
<wgt id='1823'> +2.1024691E-01 </wgt>
<wgt id='1824'> +2.9877612E-01 </wgt>
<wgt id='1825'> +3.8032797E-01 </wgt>
<wgt id='1826'> +3.9762893E-01 </wgt>
<wgt id='1827'> +3.6503160E-01 </wgt>
<wgt id='1828'> +4.0647236E-01 </wgt>
<wgt id='1829'> +3.7795259E-01 </wgt>
<wgt id='1830'> +2.4952007E-01 </wgt>
<wgt id='1831'> +3.9813453E-01 </wgt>
<wgt id='1832'> +3.6406675E-01 </wgt>
<wgt id='1833'> +2.3250476E-01 </wgt>
<wgt id='1834'> +6.6595334E-01 </wgt>
<wgt id='1835'> +3.2387797E-01 </wgt>
<wgt id='1836'> +4.1873597E-01 </wgt>
<wgt id='1837'> +2.4649079E-01 </wgt>
<wgt id='1838'> +3.7809463E-01 </wgt>
<wgt id='1839'> +2.9007165E-01 </wgt>
<wgt id='1840'> +5.3199634E-01 </wgt>
<wgt id='1841'> +4.4709963E-01 </wgt>
<wgt id='1842'> +2.8406540E-01 </wgt>
<wgt id='1843'> +3.2891768E-01 </wgt>
<wgt id='1844'> +2.8153220E-01 </wgt>
<wgt id='1845'> +2.8826400E-01 </wgt>
<wgt id='1846'> +2.6500299E-01 </wgt>
<wgt id='1847'> +4.0043693E-01 </wgt>
<wgt id='1848'> +2.7980885E-01 </wgt>
<wgt id='1849'> +4.4439357E-01 </wgt>
<wgt id='1850'> +4.9437390E-01 </wgt>
<wgt id='1851'> +2.7098477E-01 </wgt>
<wgt id='1852'> +2.8525282E-01 </wgt>
<wgt id='1853'> +2.5873142E-01 </wgt>
<wgt id='1854'> +2.8313262E-01 </wgt>
<wgt id='1855'> +4.1882064E-01 </wgt>
<wgt id='1856'> +3.6671441E-01 </wgt>
<wgt id='1857'> +2.6388592E-01 </wgt>
<wgt id='1858'> +3.7966743E-01 </wgt>
<wgt id='1859'> +5.1355310E-01 </wgt>
<wgt id='1860'> +4.4554359E-01 </wgt>
<wgt id='1861'> +2.2670377E-01 </wgt>
<wgt id='1862'> +7.8678868E-01 </wgt>
<wgt id='1863'> +4.4144228E-01 </wgt>
<wgt id='1864'> +3.1954759E-01 </wgt>
<wgt id='1865'> +1.2329646E-01 </wgt>
<wgt id='1866'> +2.7106839E-01 </wgt>
<wgt id='1867'> +2.1583410E-01 </wgt>
<wgt id='1868'> +2.5885508E-01 </wgt>
<wgt id='1869'> +2.8437404E-01 </wgt>
<wgt id='1870'> +5.5044409E-01 </wgt>
<wgt id='1871'> +3.2826346E-01 </wgt>
<wgt id='1872'> +5.5414899E-01 </wgt>
<wgt id='1873'> +5.2402295E-01 </wgt>
<wgt id='1874'> +3.1392001E-01 </wgt>
<wgt id='1875'> +3.8758596E-01 </wgt>
<wgt id='1876'> +3.3051431E-01 </wgt>
<wgt id='1877'> +3.9904472E-01 </wgt>
<wgt id='1878'> +4.4513313E-01 </wgt>
<wgt id='1879'> +3.0709587E-01 </wgt>
<wgt id='1880'> +8.0928734E-01 </wgt>
<wgt id='1881'> +4.4377458E-01 </wgt>
<wgt id='1882'> +4.3732911E-01 </wgt>
<wgt id='1883'> +4.4051558E-01 </wgt>
<wgt id='1884'> +3.6038978E-01 </wgt>
<wgt id='1885'> +3.9407702E-01 </wgt>
<wgt id='1886'> +3.6333376E-01 </wgt>
<wgt id='1887'> +3.9650475E-01 </wgt>
<wgt id='1888'> +2.4619957E-01 </wgt>
<wgt id='1889'> +3.5319710E-01 </wgt>
<wgt id='1890'> +2.8516773E-01 </wgt>
<wgt id='1891'> +3.4540156E-01 </wgt>
<wgt id='1892'> +2.2103335E-01 </wgt>
<wgt id='1893'> +3.1154837E-01 </wgt>
<wgt id='1894'> +3.5175656E-01 </wgt>
<wgt id='1895'> +3.1823344E-01 </wgt>
<wgt id='1896'> +4.9042877E-01 </wgt>
<wgt id='1897'> +3.6549139E-01 </wgt>
<wgt id='1898'> +2.3341969E-01 </wgt>
<wgt id='1899'> +4.3329199E-01 </wgt>
<wgt id='1900'> +3.2874049E-01 </wgt>
<wgt id='1901'> +3.5590734E-01 </wgt>
<wgt id='1902'> +4.0356092E-01 </wgt>
<wgt id='1903'> +4.9577289E-01 </wgt>
<wgt id='1904'> +2.1459910E-01 </wgt>
<wgt id='1905'> +6.7976045E-01 </wgt>
<wgt id='1906'> +3.4343713E-01 </wgt>
<wgt id='1907'> +3.0643580E-01 </wgt>
<wgt id='1908'> +3.2942442E-01 </wgt>
<wgt id='1909'> +4.2392442E-01 </wgt>
<wgt id='1910'> +4.1047125E-01 </wgt>
<wgt id='1911'> +4.5025905E-01 </wgt>
<wgt id='1912'> +2.9700016E-01 </wgt>
<wgt id='1913'> +4.2386651E-01 </wgt>
<wgt id='1914'> +2.4526291E-01 </wgt>
<wgt id='1915'> +3.3675789E-01 </wgt>
<wgt id='1916'> +7.2012099E-01 </wgt>
<wgt id='1917'> +3.8136082E-01 </wgt>
<wgt id='1918'> +3.9868065E-01 </wgt>
<wgt id='1919'> +3.6884749E-01 </wgt>
<wgt id='1920'> +3.4730064E-01 </wgt>
<wgt id='1921'> +2.6140624E-01 </wgt>
<wgt id='1922'> +3.1490942E-01 </wgt>
<wgt id='1923'> +3.8007933E-01 </wgt>
<wgt id='1924'> +3.8699251E-01 </wgt>
<wgt id='1925'> +2.4308945E-01 </wgt>
<wgt id='1926'> +2.1024691E-01 </wgt>
<wgt id='1927'> +2.9877612E-01 </wgt>
<wgt id='1928'> +3.8032797E-01 </wgt>
<wgt id='1929'> +3.9762893E-01 </wgt>
<wgt id='1930'> +3.6503160E-01 </wgt>
<wgt id='1931'> +4.0647236E-01 </wgt>
<wgt id='1932'> +3.7795259E-01 </wgt>
<wgt id='1933'> +2.4952007E-01 </wgt>
<wgt id='1934'> +3.9813453E-01 </wgt>
<wgt id='1935'> +3.6406675E-01 </wgt>
<wgt id='1936'> +2.3250476E-01 </wgt>
<wgt id='1937'> +6.6595334E-01 </wgt>
<wgt id='1938'> +3.2387797E-01 </wgt>
<wgt id='1939'> +4.1873597E-01 </wgt>
<wgt id='1940'> +2.4649079E-01 </wgt>
<wgt id='1941'> +3.7809463E-01 </wgt>
<wgt id='1942'> +2.9007165E-01 </wgt>
<wgt id='1943'> +5.3199634E-01 </wgt>
<wgt id='1944'> +4.4709963E-01 </wgt>
<wgt id='1945'> +2.8406540E-01 </wgt>
<wgt id='1946'> +3.2891768E-01 </wgt>
<wgt id='1947'> +2.8153220E-01 </wgt>
<wgt id='1948'> +2.8826400E-01 </wgt>
<wgt id='1949'> +2.6500299E-01 </wgt>
<wgt id='1950'> +4.0043693E-01 </wgt>
<wgt id='1951'> +2.7980885E-01 </wgt>
<wgt id='1952'> +4.4439357E-01 </wgt>
<wgt id='1953'> +4.9437390E-01 </wgt>
<wgt id='1954'> +2.7098477E-01 </wgt>
<wgt id='1955'> +2.8525282E-01 </wgt>
<wgt id='1956'> +2.5873142E-01 </wgt>
<wgt id='1957'> +2.8313262E-01 </wgt>
<wgt id='1958'> +4.1882064E-01 </wgt>
<wgt id='1959'> +3.6671441E-01 </wgt>
<wgt id='1960'> +2.6388592E-01 </wgt>
<wgt id='1961'> +3.7966743E-01 </wgt>
<wgt id='1962'> +5.1355310E-01 </wgt>
<wgt id='1963'> +4.4554359E-01 </wgt>
<wgt id='1964'> +2.2670377E-01 </wgt>
<wgt id='1965'> +7.8678868E-01 </wgt>
<wgt id='1966'> +4.4144228E-01 </wgt>
<wgt id='1967'> +3.1954759E-01 </wgt>
<wgt id='1968'> +1.2329646E-01 </wgt>
<wgt id='1969'> +2.7106839E-01 </wgt>
<wgt id='1970'> +2.1583410E-01 </wgt>
<wgt id='1971'> +2.5885508E-01 </wgt>
<wgt id='1972'> +2.8437404E-01 </wgt>
<wgt id='1973'> +5.5044409E-01 </wgt>
<wgt id='1974'> +3.2826346E-01 </wgt>
<wgt id='1975'> +5.5414899E-01 </wgt>
<wgt id='1976'> +5.2402295E-01 </wgt>
<wgt id='1977'> +3.1392001E-01 </wgt>
<wgt id='1978'> +3.8758596E-01 </wgt>
<wgt id='1979'> +3.3051431E-01 </wgt>
<wgt id='1980'> +3.9904472E-01 </wgt>
<wgt id='1981'> +4.4513313E-01 </wgt>
<wgt id='1982'> +3.0709587E-01 </wgt>
<wgt id='1983'> +8.0928734E-01 </wgt>
<wgt id='1984'> +4.4377458E-01 </wgt>
<wgt id='1985'> +4.3732911E-01 </wgt>
<wgt id='1986'> +4.4051558E-01 </wgt>
<wgt id='1987'> +3.6038978E-01 </wgt>
<wgt id='1988'> +3.9407702E-01 </wgt>
<wgt id='1989'> +3.6333376E-01 </wgt>
<wgt id='1990'> +3.9650475E-01 </wgt>
<wgt id='1991'> +2.4619957E-01 </wgt>
<wgt id='1992'> +3.5319710E-01 </wgt>
<wgt id='1993'> +2.8516773E-01 </wgt>
<wgt id='1994'> +3.4540156E-01 </wgt>
<wgt id='1995'> +2.2103335E-01 </wgt>
<wgt id='1996'> +3.1154837E-01 </wgt>
<wgt id='1997'> +3.5175656E-01 </wgt>
<wgt id='1998'> +3.1823344E-01 </wgt>
<wgt id='1999'> +4.9042877E-01 </wgt>
<wgt id='2000'> +3.6549139E-01 </wgt>
<wgt id='2001'> +2.3341969E-01 </wgt>
<wgt id='2002'> +4.3329199E-01 </wgt>
<wgt id='2003'> +3.2874049E-01 </wgt>
<wgt id='2004'> +3.5590734E-01 </wgt>
<wgt id='2005'> +4.0356092E-01 </wgt>
<wgt id='2006'> +4.9577289E-01 </wgt>
<wgt id='2007'> +2.1459910E-01 </wgt>
<wgt id='2008'> +6.7976045E-01 </wgt>
<wgt id='2009'> +3.4343713E-01 </wgt>
<wgt id='2010'> +3.0643580E-01 </wgt>
<wgt id='2011'> +3.2942442E-01 </wgt>
<wgt id='2012'> +4.2392442E-01 </wgt>
<wgt id='2013'> +4.1047125E-01 </wgt>
<wgt id='2014'> +4.5025905E-01 </wgt>
<wgt id='2015'> +2.9700016E-01 </wgt>
<wgt id='2016'> +4.2386651E-01 </wgt>
<wgt id='2017'> +2.4526291E-01 </wgt>
<wgt id='2018'> +3.3675789E-01 </wgt>
<wgt id='2019'> +7.2012099E-01 </wgt>
<wgt id='2020'> +3.5951030E-01 </wgt>
<wgt id='2021'> +3.7889264E-01 </wgt>
<wgt id='2022'> +4.0374993E-01 </wgt>
</rwgt>
</event>
<event>
13      1 +3.9556008E-01 9.45857200e+02 7.81860800e-03 8.24101800e-02
        2 -1    0    0  503    0 +0.0000000000e+00 +0.0000000000e+00 +1.3049198916e+03 1.3049198916e+03 2.5500000000e-03 0.0000e+00 -1.0000e+00
       21 -1    0    0  501  503 +0.0000000000e+00 +0.0000000000e+00 -3.0045900724e+02 3.0045900724e+02 0.0000000000e+00 0.0000e+00 -1.0000e+00
  8000001  2    1    2  502    0 +2.2157616224e+02 -1.2297635120e+02 +2.3580874753e+02 6.9269431533e+02 6.0000039204e+02 0.0000e+00 0.0000e+00
        1  1    1    2  501    0 -8.7353728797e+01 -1.1745328999e+02 +5.2483799853e+02 5.4486775826e+02 5.0400000000e-03 0.0000e+00 -1.0000e+00
       -5  1    1    2    0  502 -1.3422243345e+02 +2.4042964119e+02 +2.4381413830e+02 3.6781682525e+02 4.6700000000e+00 0.0000e+00 1.0000e+00
        6  2    3    3  502    0 +1.1686559421e+01 +5.7527578217e+01 -1.3086171283e+02 2.2385201497e+02 1.7186895820e+02 0.0000e+00 0.0000e+00
        5  1    6    6  502    0 +4.2328576889e+00 +8.6672723228e+01 -3.1649362852e+01 9.2485507543e+01 4.6700000000e+00 0.0000e+00 -1.0000e+00
       24  2    6    6    0    0 +7.4537017321e+00 -2.9145145011e+01 -9.9212349983e+01 1.3136650743e+02 8.0678818393e+01 0.0000e+00 0.0000e+00
        4  1    8    8  504    0 +1.9073697062e+01 -4.5381868485e+01 -9.9911352311e+01 1.1138766147e+02 1.2700000000e+00 0.0000e+00 -1.0000e+00
       -3  1    8    8    0  504 -1.1619995330e+01 +1.6236723473e+01 +6.9900232825e-01 1.9978845959e+01 1.0100000000e-01 0.0000e+00 1.0000e+00
       23  2    3    3    0    0 +2.0988960282e+02 -1.8050392942e+02 +3.6667046036e+02 4.6884230036e+02 9.3437477465e+01 0.0000e+00 0.0000e+00
       13  1   11   11    0    0 +1.3828561863e+02 -1.4271733441e+02 +1.9201940618e+02 2.7633786092e+02 1.0566000000e-01 0.0000e+00 -1.0000e+00
      -13  1   11   11    0    0 +7.1603984191e+01 -3.7786595006e+01 +1.7465105418e+02 1.9250443944e+02 1.0566000000e-01 0.0000e+00 1.0000e+00
<mgrwt>
<rscale>  1 0.94585716e+03</rscale>
<asrwt>0</asrwt>
<pdfrwt beam="1">  1       21 0.46224463e-01 0.94585716e+03</pdfrwt>
<pdfrwt beam="2">  1        2 0.20075690e+00 0.94585716e+03</pdfrwt>
<totfact> 0.10099713e+03</totfact>
</mgrwt>
<rwgt>
<wgt id='1001'> +3.9556008E-01 </wgt>
<wgt id='1002'> +4.0397072E-01 </wgt>
<wgt id='1003'> +4.0396611E-01 </wgt>
<wgt id='1004'> +4.7118184E-01 </wgt>
<wgt id='1005'> +3.7289925E-01 </wgt>
<wgt id='1006'> +3.6664426E-01 </wgt>
<wgt id='1007'> +3.7411837E-01 </wgt>
<wgt id='1008'> +3.7411428E-01 </wgt>
<wgt id='1009'> +4.3345051E-01 </wgt>
<wgt id='1010'> +3.4645458E-01 </wgt>
<wgt id='1011'> +4.2955330E-01 </wgt>
<wgt id='1012'> +4.3913611E-01 </wgt>
<wgt id='1013'> +4.3913086E-01 </wgt>
<wgt id='1014'> +5.1631419E-01 </wgt>
<wgt id='1015'> +4.0382157E-01 </wgt>
<wgt id='1016'> +3.6995976E-01 </wgt>
<wgt id='1017'> +3.7763526E-01 </wgt>
<wgt id='1018'> +3.7763106E-01 </wgt>
<wgt id='1019'> +4.3913086E-01 </wgt>
<wgt id='1020'> +3.4920760E-01 </wgt>
<wgt id='1021'> +3.4291535E-01 </wgt>
<wgt id='1022'> +3.4972903E-01 </wgt>
<wgt id='1023'> +3.4972531E-01 </wgt>
<wgt id='1024'> +4.0396611E-01 </wgt>
<wgt id='1025'> +3.2444305E-01 </wgt>
<wgt id='1026'> +4.0175297E-01 </wgt>
<wgt id='1027'> +4.1050817E-01 </wgt>
<wgt id='1028'> +4.1050337E-01 </wgt>
<wgt id='1029'> +4.8119321E-01 </wgt>
<wgt id='1030'> +3.7816531E-01 </wgt>
<wgt id='1031'> +4.2422322E-01 </wgt>
<wgt id='1032'> +4.3345556E-01 </wgt>
<wgt id='1033'> +4.3345051E-01 </wgt>
<wgt id='1034'> +5.0721531E-01 </wgt>
<wgt id='1035'> +3.9935329E-01 </wgt>
<wgt id='1036'> +3.9321210E-01 </wgt>
<wgt id='1037'> +4.0142436E-01 </wgt>
<wgt id='1038'> +4.0141987E-01 </wgt>
<wgt id='1039'> +4.6659849E-01 </wgt>
<wgt id='1040'> +3.7103260E-01 </wgt>
<wgt id='1041'> +4.6067967E-01 </wgt>
<wgt id='1042'> +4.7118758E-01 </wgt>
<wgt id='1043'> +4.7118184E-01 </wgt>
<wgt id='1044'> +5.5579915E-01 </wgt>
<wgt id='1045'> +4.3246928E-01 </wgt>
<wgt id='1046'> +3.9556008E-01 </wgt>
<wgt id='1047'> +3.9556008E-01 </wgt>
<wgt id='1048'> +3.9556008E-01 </wgt>
<wgt id='1049'> +3.9564616E-01 </wgt>
<wgt id='1050'> +3.9529591E-01 </wgt>
<wgt id='1051'> +3.9655902E-01 </wgt>
<wgt id='1052'> +3.9483948E-01 </wgt>
<wgt id='1053'> +3.9705214E-01 </wgt>
<wgt id='1054'> +3.9517391E-01 </wgt>
<wgt id='1055'> +3.9511187E-01 </wgt>
<wgt id='1056'> +3.9542541E-01 </wgt>
<wgt id='1057'> +3.9562414E-01 </wgt>
<wgt id='1058'> +3.9552434E-01 </wgt>
<wgt id='1059'> +3.9561494E-01 </wgt>
<wgt id='1060'> +3.9463501E-01 </wgt>
<wgt id='1061'> +3.9579915E-01 </wgt>
<wgt id='1062'> +3.9632543E-01 </wgt>
<wgt id='1063'> +3.9536991E-01 </wgt>
<wgt id='1064'> +3.9597636E-01 </wgt>
<wgt id='1065'> +3.9639783E-01 </wgt>
<wgt id='1066'> +3.9391254E-01 </wgt>
<wgt id='1067'> +3.9544425E-01 </wgt>
<wgt id='1068'> +3.9443517E-01 </wgt>
<wgt id='1069'> +3.9467708E-01 </wgt>
<wgt id='1070'> +3.9588528E-01 </wgt>
<wgt id='1071'> +3.9498539E-01 </wgt>
<wgt id='1072'> +3.9617097E-01 </wgt>
<wgt id='1073'> +3.9541596E-01 </wgt>
<wgt id='1074'> +3.9588234E-01 </wgt>
<wgt id='1075'> +3.9377751E-01 </wgt>
<wgt id='1076'> +3.9641053E-01 </wgt>
<wgt id='1077'> +3.9692625E-01 </wgt>
<wgt id='1078'> +3.9537795E-01 </wgt>
<wgt id='1079'> +3.9763502E-01 </wgt>
<wgt id='1080'> +3.9638822E-01 </wgt>
<wgt id='1081'> +3.9610339E-01 </wgt>
<wgt id='1082'> +3.9619600E-01 </wgt>
<wgt id='1083'> +3.9522459E-01 </wgt>
<wgt id='1084'> +3.9486408E-01 </wgt>
<wgt id='1085'> +3.9668911E-01 </wgt>
<wgt id='1086'> +3.9468145E-01 </wgt>
<wgt id='1087'> +3.9562186E-01 </wgt>
<wgt id='1088'> +3.9603956E-01 </wgt>
<wgt id='1089'> +3.9584574E-01 </wgt>
<wgt id='1090'> +3.9555753E-01 </wgt>
<wgt id='1091'> +3.9514764E-01 </wgt>
<wgt id='1092'> +3.9471572E-01 </wgt>
<wgt id='1093'> +3.9552648E-01 </wgt>
<wgt id='1094'> +3.9545149E-01 </wgt>
<wgt id='1095'> +3.9483139E-01 </wgt>
<wgt id='1096'> +3.9473728E-01 </wgt>
<wgt id='1097'> +3.9535886E-01 </wgt>
<wgt id='1098'> +3.9533665E-01 </wgt>
<wgt id='1099'> +3.9545116E-01 </wgt>
<wgt id='1100'> +3.9574002E-01 </wgt>
<wgt id='1101'> +3.9537791E-01 </wgt>
<wgt id='1102'> +3.9576468E-01 </wgt>
<wgt id='1103'> +3.9585625E-01 </wgt>
<wgt id='1104'> +3.9573877E-01 </wgt>
<wgt id='1105'> +3.9590253E-01 </wgt>
<wgt id='1106'> +3.9580175E-01 </wgt>
<wgt id='1107'> +3.9553255E-01 </wgt>
<wgt id='1108'> +3.9566591E-01 </wgt>
<wgt id='1109'> +3.9579335E-01 </wgt>
<wgt id='1110'> +3.9555650E-01 </wgt>
<wgt id='1111'> +3.9538594E-01 </wgt>
<wgt id='1112'> +3.9574263E-01 </wgt>
<wgt id='1113'> +3.9562424E-01 </wgt>
<wgt id='1114'> +3.9474696E-01 </wgt>
<wgt id='1115'> +3.9582192E-01 </wgt>
<wgt id='1116'> +3.9553970E-01 </wgt>
<wgt id='1117'> +3.9568801E-01 </wgt>
<wgt id='1118'> +3.9541988E-01 </wgt>
<wgt id='1119'> +3.9565259E-01 </wgt>
<wgt id='1120'> +3.9544161E-01 </wgt>
<wgt id='1121'> +3.9605380E-01 </wgt>
<wgt id='1122'> +3.9544943E-01 </wgt>
<wgt id='1123'> +3.9565647E-01 </wgt>
<wgt id='1124'> +3.9552317E-01 </wgt>
<wgt id='1125'> +3.9549122E-01 </wgt>
<wgt id='1126'> +3.9551429E-01 </wgt>
<wgt id='1127'> +3.9588190E-01 </wgt>
<wgt id='1128'> +3.9551372E-01 </wgt>
<wgt id='1129'> +3.9564378E-01 </wgt>
<wgt id='1130'> +3.9569704E-01 </wgt>
<wgt id='1131'> +3.9580644E-01 </wgt>
<wgt id='1132'> +3.9550726E-01 </wgt>
<wgt id='1133'> +3.9574579E-01 </wgt>
<wgt id='1134'> +3.9544208E-01 </wgt>
<wgt id='1135'> +3.9574518E-01 </wgt>
<wgt id='1136'> +3.9563047E-01 </wgt>
<wgt id='1137'> +3.9558578E-01 </wgt>
<wgt id='1138'> +3.9578296E-01 </wgt>
<wgt id='1139'> +3.9552994E-01 </wgt>
<wgt id='1140'> +3.9580086E-01 </wgt>
<wgt id='1141'> +3.9554660E-01 </wgt>
<wgt id='1142'> +3.9566498E-01 </wgt>
<wgt id='1143'> +3.9578157E-01 </wgt>
<wgt id='1144'> +3.9544989E-01 </wgt>
<wgt id='1145'> +3.9548716E-01 </wgt>
<wgt id='1146'> +3.9548492E-01 </wgt>
<wgt id='1147'> +3.9573704E-01 </wgt>
<wgt id='1148'> +3.9556008E-01 </wgt>
<wgt id='1149'> +3.6976313E-01 </wgt>
<wgt id='1150'> +3.7274575E-01 </wgt>
<wgt id='1151'> +3.6915244E-01 </wgt>
<wgt id='1152'> +3.7040188E-01 </wgt>
<wgt id='1153'> +3.6618237E-01 </wgt>
<wgt id='1154'> +3.7117620E-01 </wgt>
<wgt id='1155'> +3.7637450E-01 </wgt>
<wgt id='1156'> +3.7496897E-01 </wgt>
<wgt id='1157'> +3.7464544E-01 </wgt>
<wgt id='1158'> +3.6946271E-01 </wgt>
<wgt id='1159'> +3.5098249E-01 </wgt>
<wgt id='1160'> +3.6924963E-01 </wgt>
<wgt id='1161'> +3.7507677E-01 </wgt>
<wgt id='1162'> +3.6314482E-01 </wgt>
<wgt id='1163'> +3.7749813E-01 </wgt>
<wgt id='1164'> +3.6884575E-01 </wgt>
<wgt id='1165'> +3.6717415E-01 </wgt>
<wgt id='1166'> +3.6974675E-01 </wgt>
<wgt id='1167'> +3.7360132E-01 </wgt>
<wgt id='1168'> +3.6646158E-01 </wgt>
<wgt id='1169'> +3.6287775E-01 </wgt>
<wgt id='1170'> +3.7290944E-01 </wgt>
<wgt id='1171'> +3.6979864E-01 </wgt>
<wgt id='1172'> +3.7159055E-01 </wgt>
<wgt id='1173'> +3.6775767E-01 </wgt>
<wgt id='1174'> +3.7558557E-01 </wgt>
<wgt id='1175'> +3.7600224E-01 </wgt>
<wgt id='1176'> +3.5254745E-01 </wgt>
<wgt id='1177'> +3.7727557E-01 </wgt>
<wgt id='1178'> +3.6928023E-01 </wgt>
<wgt id='1179'> +3.6481602E-01 </wgt>
<wgt id='1180'> +3.7155121E-01 </wgt>
<wgt id='1181'> +3.7236220E-01 </wgt>
<wgt id='1182'> +3.7359508E-01 </wgt>
<wgt id='1183'> +3.6899804E-01 </wgt>
<wgt id='1184'> +3.6860045E-01 </wgt>
<wgt id='1185'> +3.7705346E-01 </wgt>
<wgt id='1186'> +3.6828808E-01 </wgt>
<wgt id='1187'> +3.6923166E-01 </wgt>
<wgt id='1188'> +3.6566628E-01 </wgt>
<wgt id='1189'> +3.7326874E-01 </wgt>
<wgt id='1190'> +3.6983519E-01 </wgt>
<wgt id='1191'> +3.7267184E-01 </wgt>
<wgt id='1192'> +3.6483843E-01 </wgt>
<wgt id='1193'> +3.7065815E-01 </wgt>
<wgt id='1194'> +3.7229392E-01 </wgt>
<wgt id='1195'> +3.6894356E-01 </wgt>
<wgt id='1196'> +3.6995438E-01 </wgt>
<wgt id='1197'> +3.7232623E-01 </wgt>
<wgt id='1198'> +3.6957964E-01 </wgt>
<wgt id='1199'> +3.6751157E-01 </wgt>
<wgt id='1200'> +3.7363912E-01 </wgt>
<wgt id='1201'> +3.7432853E-01 </wgt>
<wgt id='1202'> +3.6993707E-01 </wgt>
<wgt id='1203'> +3.7440872E-01 </wgt>
<wgt id='1204'> +3.7663408E-01 </wgt>
<wgt id='1205'> +3.6626837E-01 </wgt>
<wgt id='1206'> +3.7082289E-01 </wgt>
<wgt id='1207'> +3.7410788E-01 </wgt>
<wgt id='1208'> +3.7194873E-01 </wgt>
<wgt id='1209'> +3.7848482E-01 </wgt>
<wgt id='1210'> +3.6144246E-01 </wgt>
<wgt id='1211'> +3.6928522E-01 </wgt>
<wgt id='1212'> +3.6596364E-01 </wgt>
<wgt id='1213'> +3.7662763E-01 </wgt>
<wgt id='1214'> +3.7192600E-01 </wgt>
<wgt id='1215'> +3.7231070E-01 </wgt>
<wgt id='1216'> +3.7084686E-01 </wgt>
<wgt id='1217'> +3.6376299E-01 </wgt>
<wgt id='1218'> +3.7000303E-01 </wgt>
<wgt id='1219'> +3.6719347E-01 </wgt>
<wgt id='1220'> +3.7119156E-01 </wgt>
<wgt id='1221'> +3.5345162E-01 </wgt>
<wgt id='1222'> +3.7079891E-01 </wgt>
<wgt id='1223'> +3.6341929E-01 </wgt>
<wgt id='1224'> +3.6565511E-01 </wgt>
<wgt id='1225'> +3.7333088E-01 </wgt>
<wgt id='1226'> +3.6210638E-01 </wgt>
<wgt id='1227'> +3.7744345E-01 </wgt>
<wgt id='1228'> +3.6937204E-01 </wgt>
<wgt id='1229'> +3.6418941E-01 </wgt>
<wgt id='1230'> +3.7079821E-01 </wgt>
<wgt id='1231'> +3.6717415E-01 </wgt>
<wgt id='1232'> +3.6221398E-01 </wgt>
<wgt id='1233'> +3.6924719E-01 </wgt>
<wgt id='1234'> +3.7328904E-01 </wgt>
<wgt id='1235'> +3.6481168E-01 </wgt>
<wgt id='1236'> +3.7460438E-01 </wgt>
<wgt id='1237'> +3.6505817E-01 </wgt>
<wgt id='1238'> +3.5846891E-01 </wgt>
<wgt id='1239'> +3.7827852E-01 </wgt>
<wgt id='1240'> +3.7738682E-01 </wgt>
<wgt id='1241'> +3.7152199E-01 </wgt>
<wgt id='1242'> +3.6759627E-01 </wgt>
<wgt id='1243'> +3.6681121E-01 </wgt>
<wgt id='1244'> +3.7046446E-01 </wgt>
<wgt id='1245'> +3.7583033E-01 </wgt>
<wgt id='1246'> +3.6581738E-01 </wgt>
<wgt id='1247'> +3.6773181E-01 </wgt>
<wgt id='1248'> +3.7079377E-01 </wgt>
<wgt id='1249'> +3.7187630E-01 </wgt>
<wgt id='1250'> +3.8738853E-01 </wgt>
<wgt id='1251'> +3.8151534E-01 </wgt>
<wgt id='1252'> +3.9417164E-01 </wgt>
<wgt id='1253'> +3.9158872E-01 </wgt>
<wgt id='1254'> +3.7153181E-01 </wgt>
<wgt id='1255'> +3.8017922E-01 </wgt>
<wgt id='1256'> +3.8280084E-01 </wgt>
<wgt id='1257'> +3.7867445E-01 </wgt>
<wgt id='1258'> +3.7961947E-01 </wgt>
<wgt id='1259'> +3.8047153E-01 </wgt>
<wgt id='1260'> +3.8095463E-01 </wgt>
<wgt id='1261'> +3.7915257E-01 </wgt>
<wgt id='1262'> +3.8075612E-01 </wgt>
<wgt id='1263'> +3.7982291E-01 </wgt>
<wgt id='1264'> +3.8014797E-01 </wgt>
<wgt id='1265'> +3.8022234E-01 </wgt>
<wgt id='1266'> +3.8024198E-01 </wgt>
<wgt id='1267'> +3.8013713E-01 </wgt>
<wgt id='1268'> +3.8404443E-01 </wgt>
<wgt id='1269'> +3.7634441E-01 </wgt>
<wgt id='1270'> +3.7886280E-01 </wgt>
<wgt id='1271'> +3.8132260E-01 </wgt>
<wgt id='1272'> +3.8019291E-01 </wgt>
<wgt id='1273'> +3.8015831E-01 </wgt>
<wgt id='1274'> +3.7993051E-01 </wgt>
<wgt id='1275'> +3.8050988E-01 </wgt>
<wgt id='1276'> +3.8047754E-01 </wgt>
<wgt id='1277'> +3.7992816E-01 </wgt>
<wgt id='1278'> +3.7814778E-01 </wgt>
<wgt id='1279'> +3.8185002E-01 </wgt>
<wgt id='1280'> +3.7995069E-01 </wgt>
<wgt id='1281'> +3.8075296E-01 </wgt>
<wgt id='1282'> +3.8155063E-01 </wgt>
<wgt id='1283'> +3.7846484E-01 </wgt>
<wgt id='1284'> +3.7929288E-01 </wgt>
<wgt id='1285'> +3.8093201E-01 </wgt>
<wgt id='1286'> +3.8149003E-01 </wgt>
<wgt id='1287'> +3.8011172E-01 </wgt>
<wgt id='1288'> +3.8013430E-01 </wgt>
<wgt id='1289'> +3.8013038E-01 </wgt>
<wgt id='1290'> +3.8078193E-01 </wgt>
<wgt id='1291'> +3.7998000E-01 </wgt>
<wgt id='1292'> +3.8209619E-01 </wgt>
<wgt id='1293'> +3.7772734E-01 </wgt>
<wgt id='1294'> +3.7854632E-01 </wgt>
<wgt id='1295'> +3.8023812E-01 </wgt>
<wgt id='1296'> +3.9047720E-01 </wgt>
<wgt id='1297'> +3.9145197E-01 </wgt>
<wgt id='1298'> +3.8968994E-01 </wgt>
<wgt id='1299'> +3.8923802E-01 </wgt>
<wgt id='1300'> +3.9186301E-01 </wgt>
<wgt id='1301'> +3.8951208E-01 </wgt>
<wgt id='1302'> +3.9192178E-01 </wgt>
<wgt id='1303'> +3.9009580E-01 </wgt>
<wgt id='1304'> +3.9073371E-01 </wgt>
<wgt id='1305'> +3.9090793E-01 </wgt>
<wgt id='1306'> +3.8986174E-01 </wgt>
<wgt id='1307'> +3.9275855E-01 </wgt>
<wgt id='1308'> +3.8906844E-01 </wgt>
<wgt id='1309'> +3.9067780E-01 </wgt>
<wgt id='1310'> +3.9022182E-01 </wgt>
<wgt id='1311'> +3.9408162E-01 </wgt>
<wgt id='1312'> +3.8918089E-01 </wgt>
<wgt id='1313'> +3.8968536E-01 </wgt>
<wgt id='1314'> +3.9138586E-01 </wgt>
<wgt id='1315'> +3.9054107E-01 </wgt>
<wgt id='1316'> +3.9041058E-01 </wgt>
<wgt id='1317'> +3.8949367E-01 </wgt>
<wgt id='1318'> +3.9253023E-01 </wgt>
<wgt id='1319'> +3.9066899E-01 </wgt>
<wgt id='1320'> +3.9047823E-01 </wgt>
<wgt id='1321'> +3.8878521E-01 </wgt>
<wgt id='1322'> +3.9133978E-01 </wgt>
<wgt id='1323'> +3.9004359E-01 </wgt>
<wgt id='1324'> +3.9076519E-01 </wgt>
<wgt id='1325'> +3.9088510E-01 </wgt>
<wgt id='1326'> +3.8993029E-01 </wgt>
<wgt id='1327'> +3.9057401E-01 </wgt>
<wgt id='1328'> +3.9046695E-01 </wgt>
<wgt id='1329'> +3.9058390E-01 </wgt>
<wgt id='1330'> +3.9040944E-01 </wgt>
<wgt id='1331'> +3.9101876E-01 </wgt>
<wgt id='1332'> +3.9058381E-01 </wgt>
<wgt id='1333'> +3.9283702E-01 </wgt>
<wgt id='1334'> +3.8858964E-01 </wgt>
<wgt id='1335'> +3.9187144E-01 </wgt>
<wgt id='1336'> +3.9012650E-01 </wgt>
<wgt id='1337'> +3.9047720E-01 </wgt>
<wgt id='1338'> +3.9114643E-01 </wgt>
<wgt id='1339'> +3.9090375E-01 </wgt>
<wgt id='1340'> +3.9067139E-01 </wgt>
<wgt id='1341'> +3.9027313E-01 </wgt>
<wgt id='1342'> +3.9011121E-01 </wgt>
<wgt id='1343'> +3.8994437E-01 </wgt>
<wgt id='1344'> +3.9424667E-01 </wgt>
<wgt id='1345'> +3.9573908E-01 </wgt>
<wgt id='1346'> +3.9274877E-01 </wgt>
<wgt id='1347'> +3.9671617E-01 </wgt>
<wgt id='1348'> +3.9242614E-01 </wgt>
<wgt id='1349'> +3.9356796E-01 </wgt>
<wgt id='1350'> +3.9481666E-01 </wgt>
<wgt id='1351'> +3.9425816E-01 </wgt>
<wgt id='1352'> +3.9423854E-01 </wgt>
<wgt id='1353'> +3.9531430E-01 </wgt>
<wgt id='1354'> +3.9348058E-01 </wgt>
<wgt id='1355'> +3.9362264E-01 </wgt>
<wgt id='1356'> +3.9473215E-01 </wgt>
<wgt id='1357'> +3.9508062E-01 </wgt>
<wgt id='1358'> +3.9372507E-01 </wgt>
<wgt id='1359'> +3.9265830E-01 </wgt>
<wgt id='1360'> +3.9823200E-01 </wgt>
<wgt id='1361'> +3.9481298E-01 </wgt>
<wgt id='1362'> +3.9412010E-01 </wgt>
<wgt id='1363'> +3.9442891E-01 </wgt>
<wgt id='1364'> +3.9403216E-01 </wgt>
<wgt id='1365'> +3.9424795E-01 </wgt>
<wgt id='1366'> +3.9429396E-01 </wgt>
<wgt id='1367'> +3.9197555E-01 </wgt>
<wgt id='1368'> +3.9537489E-01 </wgt>
<wgt id='1369'> +3.9403570E-01 </wgt>
<wgt id='1370'> +3.9446561E-01 </wgt>
<wgt id='1371'> +3.9439723E-01 </wgt>
<wgt id='1372'> +3.9398305E-01 </wgt>
<wgt id='1373'> +3.9571724E-01 </wgt>
<wgt id='1374'> +3.9401071E-01 </wgt>
<wgt id='1375'> +3.9476654E-01 </wgt>
<wgt id='1376'> +3.9414680E-01 </wgt>
<wgt id='1377'> +3.9425348E-01 </wgt>
<wgt id='1378'> +3.9427865E-01 </wgt>
<wgt id='1379'> +3.9486801E-01 </wgt>
<wgt id='1380'> +3.9439595E-01 </wgt>
<wgt id='1381'> +3.9243246E-01 </wgt>
<wgt id='1382'> +3.9520054E-01 </wgt>
<wgt id='1383'> +3.9385865E-01 </wgt>
<wgt id='1384'> +3.9636344E-01 </wgt>
<wgt id='1385'> +3.9424667E-01 </wgt>
<wgt id='1386'> +3.9484442E-01 </wgt>
<wgt id='1387'> +3.9461011E-01 </wgt>
<wgt id='1388'> +3.9440240E-01 </wgt>
<wgt id='1389'> +3.9403480E-01 </wgt>
<wgt id='1390'> +3.9386955E-01 </wgt>
<wgt id='1391'> +3.9372861E-01 </wgt>
<wgt id='1392'> +4.1092394E-01 </wgt>
<wgt id='1393'> +4.1096326E-01 </wgt>
<wgt id='1394'> +4.1085743E-01 </wgt>
<wgt id='1395'> +4.1121785E-01 </wgt>
<wgt id='1396'> +4.1069342E-01 </wgt>
<wgt id='1397'> +4.1241984E-01 </wgt>
<wgt id='1398'> +4.0945140E-01 </wgt>
<wgt id='1399'> +4.1239877E-01 </wgt>
<wgt id='1400'> +4.0909794E-01 </wgt>
<wgt id='1401'> +4.0940161E-01 </wgt>
<wgt id='1402'> +4.1277876E-01 </wgt>
<wgt id='1403'> +4.1056906E-01 </wgt>
<wgt id='1404'> +4.1162583E-01 </wgt>
<wgt id='1405'> +4.1039456E-01 </wgt>
<wgt id='1406'> +4.1164326E-01 </wgt>
<wgt id='1407'> +4.1070143E-01 </wgt>
<wgt id='1408'> +4.1106978E-01 </wgt>
<wgt id='1409'> +4.1284827E-01 </wgt>
<wgt id='1410'> +4.0870055E-01 </wgt>
<wgt id='1411'> +4.1046569E-01 </wgt>
<wgt id='1412'> +4.1126307E-01 </wgt>
<wgt id='1413'> +4.1237632E-01 </wgt>
<wgt id='1414'> +4.0938622E-01 </wgt>
<wgt id='1415'> +4.1272788E-01 </wgt>
<wgt id='1416'> +4.0898841E-01 </wgt>
<wgt id='1417'> +4.0906985E-01 </wgt>
<wgt id='1418'> +4.1317088E-01 </wgt>
<wgt id='1419'> +4.1094954E-01 </wgt>
<wgt id='1420'> +4.1067734E-01 </wgt>
<wgt id='1421'> +4.1139083E-01 </wgt>
<wgt id='1422'> +4.1044072E-01 </wgt>
<wgt id='1423'> +4.1036562E-01 </wgt>
<wgt id='1424'> +4.1112625E-01 </wgt>
<wgt id='1425'> +4.1106690E-01 </wgt>
<wgt id='1426'> +4.1072053E-01 </wgt>
<wgt id='1427'> +4.1049242E-01 </wgt>
<wgt id='1428'> +4.0950428E-01 </wgt>
<wgt id='1429'> +4.1032482E-01 </wgt>
<wgt id='1430'> +4.1137951E-01 </wgt>
<wgt id='1431'> +4.1046713E-01 </wgt>
<wgt id='1432'> +4.1122321E-01 </wgt>
<wgt id='1433'> +4.0884204E-01 </wgt>
<wgt id='1434'> +4.1295085E-01 </wgt>
<wgt id='1435'> +4.1012335E-01 </wgt>
<wgt id='1436'> +4.1157328E-01 </wgt>
<wgt id='1437'> +4.1044109E-01 </wgt>
<wgt id='1438'> +4.1201146E-01 </wgt>
<wgt id='1439'> +4.1315266E-01 </wgt>
<wgt id='1440'> +4.0788492E-01 </wgt>
<wgt id='1441'> +4.1174301E-01 </wgt>
<wgt id='1442'> +4.1143360E-01 </wgt>
<wgt id='1443'> +4.0976802E-01 </wgt>
<wgt id='1444'> +4.0982469E-01 </wgt>
<wgt id='1445'> +4.0968949E-01 </wgt>
<wgt id='1446'> +4.1008747E-01 </wgt>
<wgt id='1447'> +4.0955564E-01 </wgt>
<wgt id='1448'> +4.1137018E-01 </wgt>
<wgt id='1449'> +4.0826992E-01 </wgt>
<wgt id='1450'> +4.1116726E-01 </wgt>
<wgt id='1451'> +4.0821395E-01 </wgt>
<wgt id='1452'> +4.0826086E-01 </wgt>
<wgt id='1453'> +4.1121854E-01 </wgt>
<wgt id='1454'> +4.0933059E-01 </wgt>
<wgt id='1455'> +4.1071071E-01 </wgt>
<wgt id='1456'> +4.0915267E-01 </wgt>
<wgt id='1457'> +4.1085104E-01 </wgt>
<wgt id='1458'> +4.0964283E-01 </wgt>
<wgt id='1459'> +4.0983991E-01 </wgt>
<wgt id='1460'> +4.1165993E-01 </wgt>
<wgt id='1461'> +4.0750691E-01 </wgt>
<wgt id='1462'> +4.0889732E-01 </wgt>
<wgt id='1463'> +4.1050713E-01 </wgt>
<wgt id='1464'> +4.1112984E-01 </wgt>
<wgt id='1465'> +4.0798586E-01 </wgt>
<wgt id='1466'> +4.1232557E-01 </wgt>
<wgt id='1467'> +4.0791460E-01 </wgt>
<wgt id='1468'> +4.1141295E-01 </wgt>
<wgt id='1469'> +4.0817003E-01 </wgt>
<wgt id='1470'> +4.0991608E-01 </wgt>
<wgt id='1471'> +4.0951467E-01 </wgt>
<wgt id='1472'> +4.1018348E-01 </wgt>
<wgt id='1473'> +4.0929952E-01 </wgt>
<wgt id='1474'> +4.0941807E-01 </wgt>
<wgt id='1475'> +4.0991670E-01 </wgt>
<wgt id='1476'> +4.1002201E-01 </wgt>
<wgt id='1477'> +4.0947433E-01 </wgt>
<wgt id='1478'> +4.0941242E-01 </wgt>
<wgt id='1479'> +4.0834615E-01 </wgt>
<wgt id='1480'> +4.0939634E-01 </wgt>
<wgt id='1481'> +4.1005263E-01 </wgt>
<wgt id='1482'> +4.0931371E-01 </wgt>
<wgt id='1483'> +4.1012379E-01 </wgt>
<wgt id='1484'> +4.0764376E-01 </wgt>
<wgt id='1485'> +4.1191181E-01 </wgt>
<wgt id='1486'> +4.0915702E-01 </wgt>
<wgt id='1487'> +4.1023631E-01 </wgt>
<wgt id='1488'> +4.0921044E-01 </wgt>
<wgt id='1489'> +4.1102852E-01 </wgt>
<wgt id='1490'> +4.1278920E-01 </wgt>
<wgt id='1491'> +4.0662470E-01 </wgt>
<wgt id='1492'> +4.1112963E-01 </wgt>
<wgt id='1493'> +4.1029345E-01 </wgt>
<wgt id='1494'> +3.8823393E-01 </wgt>
<wgt id='1495'> +3.8696928E-01 </wgt>
<wgt id='1496'> +3.8745782E-01 </wgt>
<wgt id='1497'> +3.8789311E-01 </wgt>
<wgt id='1498'> +3.8852718E-01 </wgt>
<wgt id='1499'> +3.8822140E-01 </wgt>
<wgt id='1500'> +3.9230392E-01 </wgt>
<wgt id='1501'> +3.9154609E-01 </wgt>
<wgt id='1502'> +3.9073690E-01 </wgt>
<wgt id='1503'> +3.8991835E-01 </wgt>
<wgt id='1504'> +3.8909877E-01 </wgt>
<wgt id='1505'> +3.8740080E-01 </wgt>
<wgt id='1506'> +3.8654607E-01 </wgt>
<wgt id='1507'> +3.8569599E-01 </wgt>
<wgt id='1508'> +3.8822140E-01 </wgt>
<wgt id='1509'> +3.8889552E-01 </wgt>
<wgt id='1510'> +3.8852740E-01 </wgt>
<wgt id='1511'> +3.8794513E-01 </wgt>
<wgt id='1512'> +3.8768362E-01 </wgt>
<wgt id='1513'> +3.9364553E-01 </wgt>
<wgt id='1514'> +3.9351902E-01 </wgt>
<wgt id='1515'> +3.9380760E-01 </wgt>
<wgt id='1516'> +3.9426167E-01 </wgt>
<wgt id='1517'> +3.9302372E-01 </wgt>
<wgt id='1518'> +3.9441516E-01 </wgt>
<wgt id='1519'> +3.9333214E-01 </wgt>
<wgt id='1520'> +3.9588407E-01 </wgt>
<wgt id='1521'> +3.9141554E-01 </wgt>
<wgt id='1522'> +3.9288315E-01 </wgt>
<wgt id='1523'> +3.9437540E-01 </wgt>
<wgt id='1524'> +3.9584916E-01 </wgt>
<wgt id='1525'> +3.9269107E-01 </wgt>
<wgt id='1526'> +3.9363105E-01 </wgt>
<wgt id='1527'> +3.9367669E-01 </wgt>
<wgt id='1528'> +3.9312458E-01 </wgt>
<wgt id='1529'> +3.9420912E-01 </wgt>
<wgt id='1530'> +3.9628102E-01 </wgt>
<wgt id='1531'> +3.9215005E-01 </wgt>
<wgt id='1532'> +3.9486960E-01 </wgt>
<wgt id='1533'> +3.9195916E-01 </wgt>
<wgt id='1534'> +3.9249550E-01 </wgt>
<wgt id='1535'> +3.9444646E-01 </wgt>
<wgt id='1536'> +3.9161715E-01 </wgt>
<wgt id='1537'> +3.9561765E-01 </wgt>
<wgt id='1538'> +3.9266340E-01 </wgt>
<wgt id='1539'> +3.9591789E-01 </wgt>
<wgt id='1540'> +3.9312908E-01 </wgt>
<wgt id='1541'> +3.9375116E-01 </wgt>
<wgt id='1542'> +3.9347304E-01 </wgt>
<wgt id='1543'> +3.9444404E-01 </wgt>
<wgt id='1544'> +3.9320999E-01 </wgt>
<wgt id='1545'> +3.9378506E-01 </wgt>
<wgt id='1546'> +3.9322799E-01 </wgt>
<wgt id='1547'> +3.9350836E-01 </wgt>
<wgt id='1548'> +3.9262873E-01 </wgt>
<wgt id='1549'> +3.9325564E-01 </wgt>
<wgt id='1550'> +3.9365479E-01 </wgt>
<wgt id='1551'> +3.9337089E-01 </wgt>
<wgt id='1552'> +3.9303085E-01 </wgt>
<wgt id='1553'> +3.9395455E-01 </wgt>
<wgt id='1554'> +3.9460972E-01 </wgt>
<wgt id='1555'> +3.9132870E-01 </wgt>
<wgt id='1556'> +3.9416413E-01 </wgt>
<wgt id='1557'> +3.9365523E-01 </wgt>
<wgt id='1558'> +3.9157637E-01 </wgt>
<wgt id='1559'> +3.9510151E-01 </wgt>
<wgt id='1560'> +3.9563867E-01 </wgt>
<wgt id='1561'> +3.9272593E-01 </wgt>
<wgt id='1562'> +3.9191737E-01 </wgt>
<wgt id='1563'> +3.9478204E-01 </wgt>
<wgt id='1564'> +3.9364553E-01 </wgt>
<wgt id='1565'> +3.9258221E-01 </wgt>
<wgt id='1566'> +3.9357353E-01 </wgt>
<wgt id='1567'> +3.9313511E-01 </wgt>
<wgt id='1568'> +3.9728006E-01 </wgt>
<wgt id='1569'> +3.9648548E-01 </wgt>
<wgt id='1570'> +3.9563637E-01 </wgt>
<wgt id='1571'> +3.9478144E-01 </wgt>
<wgt id='1572'> +3.9395749E-01 </wgt>
<wgt id='1573'> +3.9221677E-01 </wgt>
<wgt id='1574'> +3.9118286E-01 </wgt>
<wgt id='1575'> +3.9032562E-01 </wgt>
<wgt id='1576'> +3.9313511E-01 </wgt>
<wgt id='1577'> +3.9367989E-01 </wgt>
<wgt id='1578'> +3.9339802E-01 </wgt>
<wgt id='1579'> +3.9289993E-01 </wgt>
<wgt id='1580'> +3.9270983E-01 </wgt>
<wgt id='1581'> +3.9250252E-01 </wgt>
<wgt id='1582'> +3.9297516E-01 </wgt>
<wgt id='1583'> +3.9437768E-01 </wgt>
<wgt id='1584'> +3.9116737E-01 </wgt>
<wgt id='1585'> +3.9384320E-01 </wgt>
<wgt id='1586'> +3.8956564E-01 </wgt>
<wgt id='1587'> +3.8901400E-01 </wgt>
<wgt id='1588'> +3.9581456E-01 </wgt>
<wgt id='1589'> +3.9220581E-01 </wgt>
<wgt id='1590'> +3.9385087E-01 </wgt>
<wgt id='1591'> +3.9191922E-01 </wgt>
<wgt id='1592'> +3.8992383E-01 </wgt>
<wgt id='1593'> +3.9335143E-01 </wgt>
<wgt id='1594'> +3.9188129E-01 </wgt>
<wgt id='1595'> +3.9206258E-01 </wgt>
<wgt id='1596'> +3.9514076E-01 </wgt>
<wgt id='1597'> +3.9355180E-01 </wgt>
<wgt id='1598'> +3.9313582E-01 </wgt>
<wgt id='1599'> +3.9248868E-01 </wgt>
<wgt id='1600'> +3.9350813E-01 </wgt>
<wgt id='1601'> +3.9164670E-01 </wgt>
<wgt id='1602'> +3.9331892E-01 </wgt>
<wgt id='1603'> +3.9327584E-01 </wgt>
<wgt id='1604'> +3.9256948E-01 </wgt>
<wgt id='1605'> +3.9178128E-01 </wgt>
<wgt id='1606'> +3.9288014E-01 </wgt>
<wgt id='1607'> +3.9297142E-01 </wgt>
<wgt id='1608'> +3.9270074E-01 </wgt>
<wgt id='1609'> +3.9332074E-01 </wgt>
<wgt id='1610'> +3.9223869E-01 </wgt>
<wgt id='1611'> +3.9424571E-01 </wgt>
<wgt id='1612'> +3.8686706E-01 </wgt>
<wgt id='1613'> +3.8665286E-01 </wgt>
<wgt id='1614'> +3.8720820E-01 </wgt>
<wgt id='1615'> +3.8720962E-01 </wgt>
<wgt id='1616'> +3.8659105E-01 </wgt>
<wgt id='1617'> +3.8670696E-01 </wgt>
<wgt id='1618'> +3.8747899E-01 </wgt>
<wgt id='1619'> +3.8611904E-01 </wgt>
<wgt id='1620'> +3.8657058E-01 </wgt>
<wgt id='1621'> +3.8691585E-01 </wgt>
<wgt id='1622'> +3.8762769E-01 </wgt>
<wgt id='1623'> +3.8622274E-01 </wgt>
<wgt id='1624'> +3.8583592E-01 </wgt>
<wgt id='1625'> +3.8629483E-01 </wgt>
<wgt id='1626'> +3.8789000E-01 </wgt>
<wgt id='1627'> +3.8624178E-01 </wgt>
<wgt id='1628'> +3.8710928E-01 </wgt>
<wgt id='1629'> +3.8737637E-01 </wgt>
<wgt id='1630'> +3.8674536E-01 </wgt>
<wgt id='1631'> +3.8734648E-01 </wgt>
<wgt id='1632'> +3.8708918E-01 </wgt>
<wgt id='1633'> +3.8680025E-01 </wgt>
<wgt id='1634'> +3.8763828E-01 </wgt>
<wgt id='1635'> +3.8617995E-01 </wgt>
<wgt id='1636'> +3.8639214E-01 </wgt>
<wgt id='1637'> +3.8779606E-01 </wgt>
<wgt id='1638'> +3.8679960E-01 </wgt>
<wgt id='1639'> +3.8776668E-01 </wgt>
<wgt id='1640'> +3.8711780E-01 </wgt>
<wgt id='1641'> +3.8368054E-01 </wgt>
<wgt id='1642'> +3.8583977E-01 </wgt>
<wgt id='1643'> +3.8683113E-01 </wgt>
<wgt id='1644'> +3.8566998E-01 </wgt>
<wgt id='1645'> +3.8629950E-01 </wgt>
<wgt id='1646'> +3.8778120E-01 </wgt>
<wgt id='1647'> +3.8623840E-01 </wgt>
<wgt id='1648'> +3.8655177E-01 </wgt>
<wgt id='1649'> +3.8755264E-01 </wgt>
<wgt id='1650'> +3.8646713E-01 </wgt>
<wgt id='1651'> +3.8668048E-01 </wgt>
<wgt id='1652'> +3.8662512E-01 </wgt>
<wgt id='1653'> +3.8681222E-01 </wgt>
<wgt id='1654'> +3.8655427E-01 </wgt>
<wgt id='1655'> +3.8746401E-01 </wgt>
<wgt id='1656'> +3.8690160E-01 </wgt>
<wgt id='1657'> +3.8664714E-01 </wgt>
<wgt id='1658'> +3.8726844E-01 </wgt>
<wgt id='1659'> +3.8759610E-01 </wgt>
<wgt id='1660'> +3.8699342E-01 </wgt>
<wgt id='1661'> +3.8703966E-01 </wgt>
<wgt id='1662'> +3.8720321E-01 </wgt>
<wgt id='1663'> +3.8786105E-01 </wgt>
<wgt id='1664'> +3.8713342E-01 </wgt>
<wgt id='1665'> +3.8722238E-01 </wgt>
<wgt id='1666'> +3.8742407E-01 </wgt>
<wgt id='1667'> +3.8680007E-01 </wgt>
<wgt id='1668'> +3.8653422E-01 </wgt>
<wgt id='1669'> +3.8680636E-01 </wgt>
<wgt id='1670'> +3.8642672E-01 </wgt>
<wgt id='1671'> +3.8703596E-01 </wgt>
<wgt id='1672'> +3.8715448E-01 </wgt>
<wgt id='1673'> +3.8694214E-01 </wgt>
<wgt id='1674'> +3.8675952E-01 </wgt>
<wgt id='1675'> +3.8670421E-01 </wgt>
<wgt id='1676'> +3.8615063E-01 </wgt>
<wgt id='1677'> +3.8693177E-01 </wgt>
<wgt id='1678'> +3.8709573E-01 </wgt>
<wgt id='1679'> +3.8735747E-01 </wgt>
<wgt id='1680'> +3.8765120E-01 </wgt>
<wgt id='1681'> +3.8684776E-01 </wgt>
<wgt id='1682'> +3.8677262E-01 </wgt>
<wgt id='1683'> +3.8678796E-01 </wgt>
<wgt id='1684'> +3.8684973E-01 </wgt>
<wgt id='1685'> +3.8642837E-01 </wgt>
<wgt id='1686'> +3.8689600E-01 </wgt>
<wgt id='1687'> +3.8651188E-01 </wgt>
<wgt id='1688'> +3.8676203E-01 </wgt>
<wgt id='1689'> +3.8709911E-01 </wgt>
<wgt id='1690'> +3.8705199E-01 </wgt>
<wgt id='1691'> +3.8718482E-01 </wgt>
<wgt id='1692'> +3.8685514E-01 </wgt>
<wgt id='1693'> +3.8723311E-01 </wgt>
<wgt id='1694'> +3.8728452E-01 </wgt>
<wgt id='1695'> +3.8710147E-01 </wgt>
<wgt id='1696'> +3.8676130E-01 </wgt>
<wgt id='1697'> +3.8690870E-01 </wgt>
<wgt id='1698'> +3.8665984E-01 </wgt>
<wgt id='1699'> +3.8683121E-01 </wgt>
<wgt id='1700'> +3.8681117E-01 </wgt>
<wgt id='1701'> +3.8690539E-01 </wgt>
<wgt id='1702'> +3.8680459E-01 </wgt>
<wgt id='1703'> +3.8685108E-01 </wgt>
<wgt id='1704'> +3.8692571E-01 </wgt>
<wgt id='1705'> +3.8670988E-01 </wgt>
<wgt id='1706'> +3.8672089E-01 </wgt>
<wgt id='1707'> +3.8680857E-01 </wgt>
<wgt id='1708'> +3.8665929E-01 </wgt>
<wgt id='1709'> +3.8698668E-01 </wgt>
<wgt id='1710'> +3.8672836E-01 </wgt>
<wgt id='1711'> +3.8681952E-01 </wgt>
<wgt id='1712'> +3.8668402E-01 </wgt>
<wgt id='1713'> +3.8354660E-01 </wgt>
<wgt id='1714'> +3.8963889E-01 </wgt>
<wgt id='1715'> +3.7412349E-01 </wgt>
<wgt id='1716'> +3.6949781E-01 </wgt>
<wgt id='1717'> +3.7553210E-01 </wgt>
<wgt id='1718'> +3.7159047E-01 </wgt>
<wgt id='1719'> +3.6744440E-01 </wgt>
<wgt id='1720'> +3.8533668E-01 </wgt>
<wgt id='1721'> +3.6969258E-01 </wgt>
<wgt id='1722'> +3.7155471E-01 </wgt>
<wgt id='1723'> +3.7507346E-01 </wgt>
<wgt id='1724'> +3.7786032E-01 </wgt>
<wgt id='1725'> +3.7975873E-01 </wgt>
<wgt id='1726'> +3.7704449E-01 </wgt>
<wgt id='1727'> +3.7571092E-01 </wgt>
<wgt id='1728'> +3.7397892E-01 </wgt>
<wgt id='1729'> +3.7477349E-01 </wgt>
<wgt id='1730'> +3.7010095E-01 </wgt>
<wgt id='1731'> +3.5139333E-01 </wgt>
<wgt id='1732'> +3.7708905E-01 </wgt>
<wgt id='1733'> +3.7513731E-01 </wgt>
<wgt id='1734'> +3.7907084E-01 </wgt>
<wgt id='1735'> +3.6319934E-01 </wgt>
<wgt id='1736'> +3.7782141E-01 </wgt>
<wgt id='1737'> +3.7510429E-01 </wgt>
<wgt id='1738'> +3.7713320E-01 </wgt>
<wgt id='1739'> +3.7274367E-01 </wgt>
<wgt id='1740'> +3.7602123E-01 </wgt>
<wgt id='1741'> +3.6976882E-01 </wgt>
<wgt id='1742'> +3.7972584E-01 </wgt>
<wgt id='1743'> +3.6409127E-01 </wgt>
<wgt id='1744'> +3.7905079E-01 </wgt>
<wgt id='1745'> +3.6565000E-01 </wgt>
<wgt id='1746'> +3.7327476E-01 </wgt>
<wgt id='1747'> +3.7793521E-01 </wgt>
<wgt id='1748'> +3.7101954E-01 </wgt>
<wgt id='1749'> +3.8231183E-01 </wgt>
<wgt id='1750'> +3.7080621E-01 </wgt>
<wgt id='1751'> +3.7555457E-01 </wgt>
<wgt id='1752'> +3.6406601E-01 </wgt>
<wgt id='1753'> +3.7325105E-01 </wgt>
<wgt id='1754'> +3.7866374E-01 </wgt>
<wgt id='1755'> +3.7712078E-01 </wgt>
<wgt id='1756'> +3.7003692E-01 </wgt>
<wgt id='1757'> +3.6949701E-01 </wgt>
<wgt id='1758'> +3.7293947E-01 </wgt>
<wgt id='1759'> +3.7459782E-01 </wgt>
<wgt id='1760'> +3.7058773E-01 </wgt>
<wgt id='1761'> +3.7675918E-01 </wgt>
<wgt id='1762'> +3.7571092E-01 </wgt>
<wgt id='1763'> +3.7619488E-01 </wgt>
<wgt id='1764'> +3.8225425E-01 </wgt>
<wgt id='1765'> +3.8021153E-01 </wgt>
<wgt id='1766'> +3.8572008E-01 </wgt>
<wgt id='1767'> +3.6889239E-01 </wgt>
<wgt id='1768'> +3.6363581E-01 </wgt>
<wgt id='1769'> +3.7751870E-01 </wgt>
<wgt id='1770'> +3.7975040E-01 </wgt>
<wgt id='1771'> +3.6770143E-01 </wgt>
<wgt id='1772'> +3.7434835E-01 </wgt>
<wgt id='1773'> +3.7803710E-01 </wgt>
<wgt id='1774'> +3.6579872E-01 </wgt>
<wgt id='1775'> +3.7417753E-01 </wgt>
<wgt id='1776'> +3.7880140E-01 </wgt>
<wgt id='1777'> +3.7632653E-01 </wgt>
<wgt id='1778'> +3.7408784E-01 </wgt>
<wgt id='1779'> +3.7123713E-01 </wgt>
<wgt id='1780'> +3.8305656E-01 </wgt>
<wgt id='1781'> +3.7786536E-01 </wgt>
<wgt id='1782'> +3.7715968E-01 </wgt>
<wgt id='1783'> +3.6874640E-01 </wgt>
<wgt id='1784'> +3.7630845E-01 </wgt>
<wgt id='1785'> +3.7829261E-01 </wgt>
<wgt id='1786'> +3.7865150E-01 </wgt>
<wgt id='1787'> +3.7787055E-01 </wgt>
<wgt id='1788'> +3.7044009E-01 </wgt>
<wgt id='1789'> +3.7864468E-01 </wgt>
<wgt id='1790'> +3.7743466E-01 </wgt>
<wgt id='1791'> +3.6410883E-01 </wgt>
<wgt id='1792'> +3.7679527E-01 </wgt>
<wgt id='1793'> +3.7972195E-01 </wgt>
<wgt id='1794'> +3.6695976E-01 </wgt>
<wgt id='1795'> +3.6294279E-01 </wgt>
<wgt id='1796'> +3.7661167E-01 </wgt>
<wgt id='1797'> +3.7748432E-01 </wgt>
<wgt id='1798'> +3.7682627E-01 </wgt>
<wgt id='1799'> +3.7799282E-01 </wgt>
<wgt id='1800'> +3.7645692E-01 </wgt>
<wgt id='1801'> +3.6864334E-01 </wgt>
<wgt id='1802'> +3.7256523E-01 </wgt>
<wgt id='1803'> +3.7577220E-01 </wgt>
<wgt id='1804'> +3.7945550E-01 </wgt>
<wgt id='1805'> +3.7361045E-01 </wgt>
<wgt id='1806'> +3.7189863E-01 </wgt>
<wgt id='1807'> +3.6848549E-01 </wgt>
<wgt id='1808'> +3.7329215E-01 </wgt>
<wgt id='1809'> +3.7280627E-01 </wgt>
<wgt id='1810'> +3.7128167E-01 </wgt>
<wgt id='1811'> +3.7504141E-01 </wgt>
<wgt id='1812'> +3.7104003E-01 </wgt>
<wgt id='1813'> +3.7809572E-01 </wgt>
<wgt id='1814'> +3.7067200E-01 </wgt>
<wgt id='1815'> +3.8076413E-01 </wgt>
<wgt id='1816'> +4.0038057E-01 </wgt>
<wgt id='1817'> +4.0881877E-01 </wgt>
<wgt id='1818'> +3.9774114E-01 </wgt>
<wgt id='1819'> +4.0909741E-01 </wgt>
<wgt id='1820'> +4.0599123E-01 </wgt>
<wgt id='1821'> +4.1654172E-01 </wgt>
<wgt id='1822'> +4.0510623E-01 </wgt>
<wgt id='1823'> +3.9904990E-01 </wgt>
<wgt id='1824'> +3.9687290E-01 </wgt>
<wgt id='1825'> +4.0087495E-01 </wgt>
<wgt id='1826'> +3.9606419E-01 </wgt>
<wgt id='1827'> +3.9501263E-01 </wgt>
<wgt id='1828'> +4.0486117E-01 </wgt>
<wgt id='1829'> +4.0357262E-01 </wgt>
<wgt id='1830'> +3.9807268E-01 </wgt>
<wgt id='1831'> +4.0650356E-01 </wgt>
<wgt id='1832'> +3.9669851E-01 </wgt>
<wgt id='1833'> +3.9884614E-01 </wgt>
<wgt id='1834'> +3.9567358E-01 </wgt>
<wgt id='1835'> +4.0135495E-01 </wgt>
<wgt id='1836'> +4.0540108E-01 </wgt>
<wgt id='1837'> +4.0556898E-01 </wgt>
<wgt id='1838'> +3.9398679E-01 </wgt>
<wgt id='1839'> +4.1559471E-01 </wgt>
<wgt id='1840'> +4.0152056E-01 </wgt>
<wgt id='1841'> +3.9829787E-01 </wgt>
<wgt id='1842'> +4.0544736E-01 </wgt>
<wgt id='1843'> +3.9338772E-01 </wgt>
<wgt id='1844'> +4.0258427E-01 </wgt>
<wgt id='1845'> +4.0387576E-01 </wgt>
<wgt id='1846'> +4.0430363E-01 </wgt>
<wgt id='1847'> +3.9719268E-01 </wgt>
<wgt id='1848'> +4.0174028E-01 </wgt>
<wgt id='1849'> +3.9704183E-01 </wgt>
<wgt id='1850'> +4.0127768E-01 </wgt>
<wgt id='1851'> +4.0017847E-01 </wgt>
<wgt id='1852'> +3.9646110E-01 </wgt>
<wgt id='1853'> +3.9467827E-01 </wgt>
<wgt id='1854'> +4.0128052E-01 </wgt>
<wgt id='1855'> +4.0226939E-01 </wgt>
<wgt id='1856'> +3.9872636E-01 </wgt>
<wgt id='1857'> +4.0909985E-01 </wgt>
<wgt id='1858'> +3.9826971E-01 </wgt>
<wgt id='1859'> +3.9893075E-01 </wgt>
<wgt id='1860'> +4.0055699E-01 </wgt>
<wgt id='1861'> +3.9488261E-01 </wgt>
<wgt id='1862'> +4.0370287E-01 </wgt>
<wgt id='1863'> +3.9628033E-01 </wgt>
<wgt id='1864'> +3.9782370E-01 </wgt>
<wgt id='1865'> +4.0152353E-01 </wgt>
<wgt id='1866'> +4.0000114E-01 </wgt>
<wgt id='1867'> +4.0205707E-01 </wgt>
<wgt id='1868'> +3.9806443E-01 </wgt>
<wgt id='1869'> +4.0724273E-01 </wgt>
<wgt id='1870'> +3.9947901E-01 </wgt>
<wgt id='1871'> +3.9587854E-01 </wgt>
<wgt id='1872'> +3.9493572E-01 </wgt>
<wgt id='1873'> +4.0288709E-01 </wgt>
<wgt id='1874'> +4.0063404E-01 </wgt>
<wgt id='1875'> +3.9858074E-01 </wgt>
<wgt id='1876'> +3.9880123E-01 </wgt>
<wgt id='1877'> +4.0070052E-01 </wgt>
<wgt id='1878'> +4.0025258E-01 </wgt>
<wgt id='1879'> +4.0543926E-01 </wgt>
<wgt id='1880'> +3.8640203E-01 </wgt>
<wgt id='1881'> +3.9826173E-01 </wgt>
<wgt id='1882'> +3.9495635E-01 </wgt>
<wgt id='1883'> +4.1960828E-01 </wgt>
<wgt id='1884'> +3.9624939E-01 </wgt>
<wgt id='1885'> +3.9298455E-01 </wgt>
<wgt id='1886'> +3.8848759E-01 </wgt>
<wgt id='1887'> +3.9934017E-01 </wgt>
<wgt id='1888'> +4.0683136E-01 </wgt>
<wgt id='1889'> +4.0274896E-01 </wgt>
<wgt id='1890'> +4.0964672E-01 </wgt>
<wgt id='1891'> +4.0196704E-01 </wgt>
<wgt id='1892'> +4.0321750E-01 </wgt>
<wgt id='1893'> +3.9545368E-01 </wgt>
<wgt id='1894'> +4.0326552E-01 </wgt>
<wgt id='1895'> +4.0511657E-01 </wgt>
<wgt id='1896'> +3.9440611E-01 </wgt>
<wgt id='1897'> +3.9973783E-01 </wgt>
<wgt id='1898'> +4.0080730E-01 </wgt>
<wgt id='1899'> +3.9905377E-01 </wgt>
<wgt id='1900'> +3.9825832E-01 </wgt>
<wgt id='1901'> +3.9755661E-01 </wgt>
<wgt id='1902'> +3.9384489E-01 </wgt>
<wgt id='1903'> +3.9949374E-01 </wgt>
<wgt id='1904'> +4.0410705E-01 </wgt>
<wgt id='1905'> +4.0013721E-01 </wgt>
<wgt id='1906'> +3.9575810E-01 </wgt>
<wgt id='1907'> +3.9950163E-01 </wgt>
<wgt id='1908'> +3.9924511E-01 </wgt>
<wgt id='1909'> +3.9827231E-01 </wgt>
<wgt id='1910'> +4.0344254E-01 </wgt>
<wgt id='1911'> +3.8853323E-01 </wgt>
<wgt id='1912'> +3.9817372E-01 </wgt>
<wgt id='1913'> +3.9860786E-01 </wgt>
<wgt id='1914'> +4.0362095E-01 </wgt>
<wgt id='1915'> +4.0299898E-01 </wgt>
<wgt id='1916'> +3.9248344E-01 </wgt>
<wgt id='1917'> +4.0813250E-01 </wgt>
<wgt id='1918'> +4.0604280E-01 </wgt>
<wgt id='1919'> +4.0038057E-01 </wgt>
<wgt id='1920'> +4.0881877E-01 </wgt>
<wgt id='1921'> +3.9774114E-01 </wgt>
<wgt id='1922'> +4.0909741E-01 </wgt>
<wgt id='1923'> +4.0599123E-01 </wgt>
<wgt id='1924'> +4.1654172E-01 </wgt>
<wgt id='1925'> +4.0510623E-01 </wgt>
<wgt id='1926'> +3.9904990E-01 </wgt>
<wgt id='1927'> +3.9687290E-01 </wgt>
<wgt id='1928'> +4.0087495E-01 </wgt>
<wgt id='1929'> +3.9606419E-01 </wgt>
<wgt id='1930'> +3.9501263E-01 </wgt>
<wgt id='1931'> +4.0486117E-01 </wgt>
<wgt id='1932'> +4.0357262E-01 </wgt>
<wgt id='1933'> +3.9807268E-01 </wgt>
<wgt id='1934'> +4.0650356E-01 </wgt>
<wgt id='1935'> +3.9669851E-01 </wgt>
<wgt id='1936'> +3.9884614E-01 </wgt>
<wgt id='1937'> +3.9567358E-01 </wgt>
<wgt id='1938'> +4.0135495E-01 </wgt>
<wgt id='1939'> +4.0540108E-01 </wgt>
<wgt id='1940'> +4.0556898E-01 </wgt>
<wgt id='1941'> +3.9398679E-01 </wgt>
<wgt id='1942'> +4.1559471E-01 </wgt>
<wgt id='1943'> +4.0152056E-01 </wgt>
<wgt id='1944'> +3.9829787E-01 </wgt>
<wgt id='1945'> +4.0544736E-01 </wgt>
<wgt id='1946'> +3.9338772E-01 </wgt>
<wgt id='1947'> +4.0258427E-01 </wgt>
<wgt id='1948'> +4.0387576E-01 </wgt>
<wgt id='1949'> +4.0430363E-01 </wgt>
<wgt id='1950'> +3.9719268E-01 </wgt>
<wgt id='1951'> +4.0174028E-01 </wgt>
<wgt id='1952'> +3.9704183E-01 </wgt>
<wgt id='1953'> +4.0127768E-01 </wgt>
<wgt id='1954'> +4.0017847E-01 </wgt>
<wgt id='1955'> +3.9646110E-01 </wgt>
<wgt id='1956'> +3.9467827E-01 </wgt>
<wgt id='1957'> +4.0128052E-01 </wgt>
<wgt id='1958'> +4.0226939E-01 </wgt>
<wgt id='1959'> +3.9872636E-01 </wgt>
<wgt id='1960'> +4.0909985E-01 </wgt>
<wgt id='1961'> +3.9826971E-01 </wgt>
<wgt id='1962'> +3.9893075E-01 </wgt>
<wgt id='1963'> +4.0055699E-01 </wgt>
<wgt id='1964'> +3.9488261E-01 </wgt>
<wgt id='1965'> +4.0370287E-01 </wgt>
<wgt id='1966'> +3.9628033E-01 </wgt>
<wgt id='1967'> +3.9782370E-01 </wgt>
<wgt id='1968'> +4.0152353E-01 </wgt>
<wgt id='1969'> +4.0000114E-01 </wgt>
<wgt id='1970'> +4.0205707E-01 </wgt>
<wgt id='1971'> +3.9806443E-01 </wgt>
<wgt id='1972'> +4.0724273E-01 </wgt>
<wgt id='1973'> +3.9947901E-01 </wgt>
<wgt id='1974'> +3.9587854E-01 </wgt>
<wgt id='1975'> +3.9493572E-01 </wgt>
<wgt id='1976'> +4.0288709E-01 </wgt>
<wgt id='1977'> +4.0063404E-01 </wgt>
<wgt id='1978'> +3.9858074E-01 </wgt>
<wgt id='1979'> +3.9880123E-01 </wgt>
<wgt id='1980'> +4.0070052E-01 </wgt>
<wgt id='1981'> +4.0025258E-01 </wgt>
<wgt id='1982'> +4.0543926E-01 </wgt>
<wgt id='1983'> +3.8640203E-01 </wgt>
<wgt id='1984'> +3.9826173E-01 </wgt>
<wgt id='1985'> +3.9495635E-01 </wgt>
<wgt id='1986'> +4.1960828E-01 </wgt>
<wgt id='1987'> +3.9624939E-01 </wgt>
<wgt id='1988'> +3.9298455E-01 </wgt>
<wgt id='1989'> +3.8848759E-01 </wgt>
<wgt id='1990'> +3.9934017E-01 </wgt>
<wgt id='1991'> +4.0683136E-01 </wgt>
<wgt id='1992'> +4.0274896E-01 </wgt>
<wgt id='1993'> +4.0964672E-01 </wgt>
<wgt id='1994'> +4.0196704E-01 </wgt>
<wgt id='1995'> +4.0321750E-01 </wgt>
<wgt id='1996'> +3.9545368E-01 </wgt>
<wgt id='1997'> +4.0326552E-01 </wgt>
<wgt id='1998'> +4.0511657E-01 </wgt>
<wgt id='1999'> +3.9440611E-01 </wgt>
<wgt id='2000'> +3.9973783E-01 </wgt>
<wgt id='2001'> +4.0080730E-01 </wgt>
<wgt id='2002'> +3.9905377E-01 </wgt>
<wgt id='2003'> +3.9825832E-01 </wgt>
<wgt id='2004'> +3.9755661E-01 </wgt>
<wgt id='2005'> +3.9384489E-01 </wgt>
<wgt id='2006'> +3.9949374E-01 </wgt>
<wgt id='2007'> +4.0410705E-01 </wgt>
<wgt id='2008'> +4.0013721E-01 </wgt>
<wgt id='2009'> +3.9575810E-01 </wgt>
<wgt id='2010'> +3.9950163E-01 </wgt>
<wgt id='2011'> +3.9924511E-01 </wgt>
<wgt id='2012'> +3.9827231E-01 </wgt>
<wgt id='2013'> +4.0344254E-01 </wgt>
<wgt id='2014'> +3.8853323E-01 </wgt>
<wgt id='2015'> +3.9817372E-01 </wgt>
<wgt id='2016'> +3.9860786E-01 </wgt>
<wgt id='2017'> +4.0362095E-01 </wgt>
<wgt id='2018'> +4.0299898E-01 </wgt>
<wgt id='2019'> +3.9248344E-01 </wgt>
<wgt id='2020'> +4.0042073E-01 </wgt>
<wgt id='2021'> +4.0018237E-01 </wgt>
<wgt id='2022'> +3.9941530E-01 </wgt>
</rwgt>
</event>
<event>
13      1 +3.9556008E-01 8.72318800e+01 7.81860800e-03 1.19785100e-01
        2 -1    0    0  501    0 +0.0000000000e+00 +0.0000000000e+00 +5.0400559076e+02 5.0400559076e+02 2.5500000000e-03 0.0000e+00 -1.0000e+00
       21 -1    0    0  502  503 +0.0000000000e+00 +0.0000000000e+00 -7.1855190734e+02 7.1855190734e+02 0.0000000000e+00 0.0000e+00 -1.0000e+00
  8000001  2    1    2  502    0 -4.8050099263e-01 -4.9398927731e+01 -3.1121482969e+02 6.7771261453e+02 5.9999936061e+02 0.0000e+00 0.0000e+00
        1  1    1    2  501    0 +1.0767036534e+01 +4.3713914181e+01 +3.1899638023e+02 3.2215761049e+02 5.0400000000e-03 0.0000e+00 -1.0000e+00
       -5  1    1    2    0  503 -1.0286535541e+01 +5.6850135499e+00 -2.2232786712e+02 2.2268727308e+02 4.6700000000e+00 0.0000e+00 1.0000e+00
        6  2    3    3  502    0 +6.2178598676e+01 +3.5100256565e+01 -4.4669899506e+02 4.8342850309e+02 1.7048436664e+02 0.0000e+00 0.0000e+00
        5  1    6    6  502    0 +5.0484460086e+01 +6.8415384355e+01 -3.0003003235e+02 3.1188006467e+02 4.6700000000e+00 0.0000e+00 -1.0000e+00
       24  2    6    6    0    0 +1.1694138590e+01 -3.3315127790e+01 -1.4666896271e+02 1.7154843842e+02 8.1672709545e+01 0.0000e+00 0.0000e+00
        2  1    8    8  504    0 -1.7690789511e+01 -1.2839307667e+01 -1.3038579506e+02 1.3220539859e+02 2.5500000000e-03 0.0000e+00 -1.0000e+00
       -1  1    8    8    0  504 +2.9384928101e+01 -2.0475820122e+01 -1.6283167647e+01 3.9343039832e+01 5.0400000000e-03 0.0000e+00 1.0000e+00
       23  2    3    3    0    0 -6.2659099669e+01 -8.4499184296e+01 +1.3548416536e+02 1.9428411144e+02 9.1236407079e+01 0.0000e+00 0.0000e+00
       16  1   11   11    0    0 -7.4671370543e+01 -8.8368644678e+01 +8.8573426590e+01 1.4570546606e+02 0.0000000000e+00 0.0000e+00 -1.0000e+00
      -16  1   11   11    0    0 +1.2012270874e+01 +3.8694603815e+00 +4.6910738775e+01 4.8578645387e+01 0.0000000000e+00 0.0000e+00 1.0000e+00
<mgrwt>
<rscale>  1 0.62674277e+02</rscale>
<asrwt>0</asrwt>
<pdfrwt beam="1">  1       21 0.11054645e+00 0.87231881e+02</pdfrwt>
<pdfrwt beam="2">  1        2 0.77539322e-01 0.45030153e+02</pdfrwt>
<totfact> 0.58009170e+02</totfact>
</mgrwt>
<rwgt>
<wgt id='1001'> +3.9556008E-01 </wgt>
<wgt id='1002'> +2.6389854E-01 </wgt>
<wgt id='1003'> +2.6370510E-01 </wgt>
<wgt id='1004'> +3.1319661E-01 </wgt>
<wgt id='1005'> +1.9760667E-01 </wgt>
<wgt id='1006'> +3.5421335E-01 </wgt>
<wgt id='1007'> +2.4205727E-01 </wgt>
<wgt id='1008'> +2.4188831E-01 </wgt>
<wgt id='1009'> +2.8481983E-01 </wgt>
<wgt id='1010'> +1.8353367E-01 </wgt>
<wgt id='1011'> +4.4829145E-01 </wgt>
<wgt id='1012'> +2.9020307E-01 </wgt>
<wgt id='1013'> +2.8997821E-01 </wgt>
<wgt id='1014'> +3.4806782E-01 </wgt>
<wgt id='1015'> +2.1407497E-01 </wgt>
<wgt id='1016'> +3.6493310E-01 </wgt>
<wgt id='1017'> +2.4539483E-01 </wgt>
<wgt id='1018'> +2.4521998E-01 </wgt>
<wgt id='1019'> +2.8997821E-01 </wgt>
<wgt id='1020'> +1.8510487E-01 </wgt>
<wgt id='1021'> +3.2678772E-01 </wgt>
<wgt id='1022'> +2.2508501E-01 </wgt>
<wgt id='1023'> +2.2493250E-01 </wgt>
<wgt id='1024'> +2.6370510E-01 </wgt>
<wgt id='1025'> +1.7192221E-01 </wgt>
<wgt id='1026'> +4.1358164E-01 </wgt>
<wgt id='1027'> +2.6985498E-01 </wgt>
<wgt id='1028'> +2.6965141E-01 </wgt>
<wgt id='1029'> +3.2226429E-01 </wgt>
<wgt id='1030'> +2.0053129E-01 </wgt>
<wgt id='1031'> +4.3065540E-01 </wgt>
<wgt id='1032'> +2.8503452E-01 </wgt>
<wgt id='1033'> +2.8481983E-01 </wgt>
<wgt id='1034'> +3.3989953E-01 </wgt>
<wgt id='1035'> +2.1174872E-01 </wgt>
<wgt id='1036'> +3.8564026E-01 </wgt>
<wgt id='1037'> +2.6144396E-01 </wgt>
<wgt id='1038'> +2.6125618E-01 </wgt>
<wgt id='1039'> +3.0910336E-01 </wgt>
<wgt id='1040'> +1.9666856E-01 </wgt>
<wgt id='1041'> +4.8806525E-01 </wgt>
<wgt id='1042'> +3.1344582E-01 </wgt>
<wgt id='1043'> +3.1319661E-01 </wgt>
<wgt id='1044'> +3.7774383E-01 </wgt>
<wgt id='1045'> +2.2939560E-01 </wgt>
<wgt id='1046'> +3.9556008E-01 </wgt>
<wgt id='1047'> +3.9556008E-01 </wgt>
<wgt id='1048'> +3.9556008E-01 </wgt>
<wgt id='1049'> +3.9426824E-01 </wgt>
<wgt id='1050'> +3.9534957E-01 </wgt>
<wgt id='1051'> +3.9626052E-01 </wgt>
<wgt id='1052'> +3.9595881E-01 </wgt>
<wgt id='1053'> +3.9531780E-01 </wgt>
<wgt id='1054'> +3.9521258E-01 </wgt>
<wgt id='1055'> +3.9449747E-01 </wgt>
<wgt id='1056'> +3.9372387E-01 </wgt>
<wgt id='1057'> +3.9711286E-01 </wgt>
<wgt id='1058'> +3.9512875E-01 </wgt>
<wgt id='1059'> +3.9695304E-01 </wgt>
<wgt id='1060'> +3.9503432E-01 </wgt>
<wgt id='1061'> +3.9590527E-01 </wgt>
<wgt id='1062'> +3.9633886E-01 </wgt>
<wgt id='1063'> +3.9559695E-01 </wgt>
<wgt id='1064'> +3.9642353E-01 </wgt>
<wgt id='1065'> +3.9691714E-01 </wgt>
<wgt id='1066'> +3.9482408E-01 </wgt>
<wgt id='1067'> +3.9173138E-01 </wgt>
<wgt id='1068'> +3.9597790E-01 </wgt>
<wgt id='1069'> +3.9520536E-01 </wgt>
<wgt id='1070'> +3.9668913E-01 </wgt>
<wgt id='1071'> +3.9737729E-01 </wgt>
<wgt id='1072'> +3.9376071E-01 </wgt>
<wgt id='1073'> +3.9556913E-01 </wgt>
<wgt id='1074'> +3.9437569E-01 </wgt>
<wgt id='1075'> +3.9640786E-01 </wgt>
<wgt id='1076'> +3.9636969E-01 </wgt>
<wgt id='1077'> +3.9670649E-01 </wgt>
<wgt id='1078'> +3.9604635E-01 </wgt>
<wgt id='1079'> +3.9594061E-01 </wgt>
<wgt id='1080'> +3.9501080E-01 </wgt>
<wgt id='1081'> +3.9613392E-01 </wgt>
<wgt id='1082'> +3.9505380E-01 </wgt>
<wgt id='1083'> +3.9603437E-01 </wgt>
<wgt id='1084'> +3.9560612E-01 </wgt>
<wgt id='1085'> +3.9529233E-01 </wgt>
<wgt id='1086'> +3.9498764E-01 </wgt>
<wgt id='1087'> +3.9543582E-01 </wgt>
<wgt id='1088'> +3.9628911E-01 </wgt>
<wgt id='1089'> +3.9641856E-01 </wgt>
<wgt id='1090'> +3.9652247E-01 </wgt>
<wgt id='1091'> +3.9465308E-01 </wgt>
<wgt id='1092'> +3.9589342E-01 </wgt>
<wgt id='1093'> +3.9528640E-01 </wgt>
<wgt id='1094'> +3.9542906E-01 </wgt>
<wgt id='1095'> +3.9484359E-01 </wgt>
<wgt id='1096'> +3.9481622E-01 </wgt>
<wgt id='1097'> +3.9581223E-01 </wgt>
<wgt id='1098'> +3.9480473E-01 </wgt>
<wgt id='1099'> +3.9561240E-01 </wgt>
<wgt id='1100'> +3.9669892E-01 </wgt>
<wgt id='1101'> +3.9584443E-01 </wgt>
<wgt id='1102'> +3.9594373E-01 </wgt>
<wgt id='1103'> +3.9556684E-01 </wgt>
<wgt id='1104'> +3.9582341E-01 </wgt>
<wgt id='1105'> +3.9607140E-01 </wgt>
<wgt id='1106'> +3.9609443E-01 </wgt>
<wgt id='1107'> +3.9536678E-01 </wgt>
<wgt id='1108'> +3.9533992E-01 </wgt>
<wgt id='1109'> +3.9571109E-01 </wgt>
<wgt id='1110'> +3.9555965E-01 </wgt>
<wgt id='1111'> +3.9535862E-01 </wgt>
<wgt id='1112'> +3.9518193E-01 </wgt>
<wgt id='1113'> +3.9608276E-01 </wgt>
<wgt id='1114'> +3.9571710E-01 </wgt>
<wgt id='1115'> +3.9544769E-01 </wgt>
<wgt id='1116'> +3.9549653E-01 </wgt>
<wgt id='1117'> +3.9580773E-01 </wgt>
<wgt id='1118'> +3.9550197E-01 </wgt>
<wgt id='1119'> +3.9519280E-01 </wgt>
<wgt id='1120'> +3.9570208E-01 </wgt>
<wgt id='1121'> +3.9523873E-01 </wgt>
<wgt id='1122'> +3.9548080E-01 </wgt>
<wgt id='1123'> +3.9516297E-01 </wgt>
<wgt id='1124'> +3.9536128E-01 </wgt>
<wgt id='1125'> +3.9580174E-01 </wgt>
<wgt id='1126'> +3.9587152E-01 </wgt>
<wgt id='1127'> +3.9535191E-01 </wgt>
<wgt id='1128'> +3.9580318E-01 </wgt>
<wgt id='1129'> +3.9540635E-01 </wgt>
<wgt id='1130'> +3.9531204E-01 </wgt>
<wgt id='1131'> +3.9564379E-01 </wgt>
<wgt id='1132'> +3.9589740E-01 </wgt>
<wgt id='1133'> +3.9576962E-01 </wgt>
<wgt id='1134'> +3.9548822E-01 </wgt>
<wgt id='1135'> +3.9528764E-01 </wgt>
<wgt id='1136'> +3.9558131E-01 </wgt>
<wgt id='1137'> +3.9575006E-01 </wgt>
<wgt id='1138'> +3.9534237E-01 </wgt>
<wgt id='1139'> +3.9554484E-01 </wgt>
<wgt id='1140'> +3.9588334E-01 </wgt>
<wgt id='1141'> +3.9558054E-01 </wgt>
<wgt id='1142'> +3.9577869E-01 </wgt>
<wgt id='1143'> +3.9555908E-01 </wgt>
<wgt id='1144'> +3.9543199E-01 </wgt>
<wgt id='1145'> +3.9562433E-01 </wgt>
<wgt id='1146'> +3.9547982E-01 </wgt>
<wgt id='1147'> +3.9566434E-01 </wgt>
<wgt id='1148'> +3.9556008E-01 </wgt>
<wgt id='1149'> +3.8803391E-01 </wgt>
<wgt id='1150'> +3.9404903E-01 </wgt>
<wgt id='1151'> +3.9007238E-01 </wgt>
<wgt id='1152'> +3.8340027E-01 </wgt>
<wgt id='1153'> +3.8548902E-01 </wgt>
<wgt id='1154'> +3.9259736E-01 </wgt>
<wgt id='1155'> +3.8875961E-01 </wgt>
<wgt id='1156'> +3.9054396E-01 </wgt>
<wgt id='1157'> +3.8729205E-01 </wgt>
<wgt id='1158'> +3.8395427E-01 </wgt>
<wgt id='1159'> +3.8596459E-01 </wgt>
<wgt id='1160'> +3.8196879E-01 </wgt>
<wgt id='1161'> +3.8784635E-01 </wgt>
<wgt id='1162'> +3.7997697E-01 </wgt>
<wgt id='1163'> +3.9652901E-01 </wgt>
<wgt id='1164'> +3.7816719E-01 </wgt>
<wgt id='1165'> +3.8818853E-01 </wgt>
<wgt id='1166'> +3.9043360E-01 </wgt>
<wgt id='1167'> +3.8569027E-01 </wgt>
<wgt id='1168'> +3.8929542E-01 </wgt>
<wgt id='1169'> +3.8090101E-01 </wgt>
<wgt id='1170'> +3.8174491E-01 </wgt>
<wgt id='1171'> +3.8135034E-01 </wgt>
<wgt id='1172'> +3.8909821E-01 </wgt>
<wgt id='1173'> +3.9175499E-01 </wgt>
<wgt id='1174'> +3.9032161E-01 </wgt>
<wgt id='1175'> +3.8896786E-01 </wgt>
<wgt id='1176'> +3.8131296E-01 </wgt>
<wgt id='1177'> +3.8864271E-01 </wgt>
<wgt id='1178'> +3.9275751E-01 </wgt>
<wgt id='1179'> +3.8656269E-01 </wgt>
<wgt id='1180'> +3.8693589E-01 </wgt>
<wgt id='1181'> +3.7262134E-01 </wgt>
<wgt id='1182'> +3.8842726E-01 </wgt>
<wgt id='1183'> +3.9661815E-01 </wgt>
<wgt id='1184'> +3.7266533E-01 </wgt>
<wgt id='1185'> +3.8286367E-01 </wgt>
<wgt id='1186'> +3.7689198E-01 </wgt>
<wgt id='1187'> +3.8781752E-01 </wgt>
<wgt id='1188'> +3.8122925E-01 </wgt>
<wgt id='1189'> +3.9232122E-01 </wgt>
<wgt id='1190'> +3.9146875E-01 </wgt>
<wgt id='1191'> +3.9775472E-01 </wgt>
<wgt id='1192'> +3.9159957E-01 </wgt>
<wgt id='1193'> +4.0100235E-01 </wgt>
<wgt id='1194'> +3.9210344E-01 </wgt>
<wgt id='1195'> +3.8946330E-01 </wgt>
<wgt id='1196'> +3.9456284E-01 </wgt>
<wgt id='1197'> +4.0391625E-01 </wgt>
<wgt id='1198'> +3.8355192E-01 </wgt>
<wgt id='1199'> +3.8305224E-01 </wgt>
<wgt id='1200'> +3.8531860E-01 </wgt>
<wgt id='1201'> +3.8514881E-01 </wgt>
<wgt id='1202'> +3.9181440E-01 </wgt>
<wgt id='1203'> +3.8327983E-01 </wgt>
<wgt id='1204'> +4.0223401E-01 </wgt>
<wgt id='1205'> +3.8962109E-01 </wgt>
<wgt id='1206'> +3.8552646E-01 </wgt>
<wgt id='1207'> +3.9897713E-01 </wgt>
<wgt id='1208'> +3.8367095E-01 </wgt>
<wgt id='1209'> +3.8893879E-01 </wgt>
<wgt id='1210'> +3.8142680E-01 </wgt>
<wgt id='1211'> +3.8855933E-01 </wgt>
<wgt id='1212'> +3.8800383E-01 </wgt>
<wgt id='1213'> +3.9734188E-01 </wgt>
<wgt id='1214'> +3.8507396E-01 </wgt>
<wgt id='1215'> +4.0304592E-01 </wgt>
<wgt id='1216'> +3.9299628E-01 </wgt>
<wgt id='1217'> +3.8341628E-01 </wgt>
<wgt id='1218'> +3.9475627E-01 </wgt>
<wgt id='1219'> +3.9410933E-01 </wgt>
<wgt id='1220'> +3.8161167E-01 </wgt>
<wgt id='1221'> +3.8856269E-01 </wgt>
<wgt id='1222'> +3.7878670E-01 </wgt>
<wgt id='1223'> +3.7408078E-01 </wgt>
<wgt id='1224'> +3.8551066E-01 </wgt>
<wgt id='1225'> +3.9684011E-01 </wgt>
<wgt id='1226'> +3.8914985E-01 </wgt>
<wgt id='1227'> +3.8080357E-01 </wgt>
<wgt id='1228'> +3.8584279E-01 </wgt>
<wgt id='1229'> +4.0097285E-01 </wgt>
<wgt id='1230'> +3.9207636E-01 </wgt>
<wgt id='1231'> +3.8818853E-01 </wgt>
<wgt id='1232'> +3.8019465E-01 </wgt>
<wgt id='1233'> +3.8251721E-01 </wgt>
<wgt id='1234'> +3.7869730E-01 </wgt>
<wgt id='1235'> +4.0322642E-01 </wgt>
<wgt id='1236'> +3.7820681E-01 </wgt>
<wgt id='1237'> +3.8499741E-01 </wgt>
<wgt id='1238'> +3.7824274E-01 </wgt>
<wgt id='1239'> +3.9739858E-01 </wgt>
<wgt id='1240'> +3.9761004E-01 </wgt>
<wgt id='1241'> +3.8578676E-01 </wgt>
<wgt id='1242'> +3.8345991E-01 </wgt>
<wgt id='1243'> +3.9353762E-01 </wgt>
<wgt id='1244'> +3.8301436E-01 </wgt>
<wgt id='1245'> +3.9027279E-01 </wgt>
<wgt id='1246'> +3.9947356E-01 </wgt>
<wgt id='1247'> +3.8993205E-01 </wgt>
<wgt id='1248'> +3.8250994E-01 </wgt>
<wgt id='1249'> +3.8667478E-01 </wgt>
<wgt id='1250'> +3.9386325E-01 </wgt>
<wgt id='1251'> +3.8971673E-01 </wgt>
<wgt id='1252'> +4.0784220E-01 </wgt>
<wgt id='1253'> +4.0262486E-01 </wgt>
<wgt id='1254'> +3.9163175E-01 </wgt>
<wgt id='1255'> +4.0662235E-01 </wgt>
<wgt id='1256'> +4.0754540E-01 </wgt>
<wgt id='1257'> +4.0607403E-01 </wgt>
<wgt id='1258'> +4.0556208E-01 </wgt>
<wgt id='1259'> +4.0715784E-01 </wgt>
<wgt id='1260'> +4.0685212E-01 </wgt>
<wgt id='1261'> +4.0630737E-01 </wgt>
<wgt id='1262'> +4.0685223E-01 </wgt>
<wgt id='1263'> +4.0647343E-01 </wgt>
<wgt id='1264'> +4.0680224E-01 </wgt>
<wgt id='1265'> +4.0649733E-01 </wgt>
<wgt id='1266'> +4.0730199E-01 </wgt>
<wgt id='1267'> +4.0594566E-01 </wgt>
<wgt id='1268'> +4.1010037E-01 </wgt>
<wgt id='1269'> +4.0312213E-01 </wgt>
<wgt id='1270'> +4.0277880E-01 </wgt>
<wgt id='1271'> +4.1070446E-01 </wgt>
<wgt id='1272'> +4.0530536E-01 </wgt>
<wgt id='1273'> +4.0761535E-01 </wgt>
<wgt id='1274'> +4.0737668E-01 </wgt>
<wgt id='1275'> +4.0578782E-01 </wgt>
<wgt id='1276'> +4.0961954E-01 </wgt>
<wgt id='1277'> +4.0355255E-01 </wgt>
<wgt id='1278'> +4.0411271E-01 </wgt>
<wgt id='1279'> +4.0857507E-01 </wgt>
<wgt id='1280'> +4.0544384E-01 </wgt>
<wgt id='1281'> +4.0985649E-01 </wgt>
<wgt id='1282'> +4.0729215E-01 </wgt>
<wgt id='1283'> +4.0531556E-01 </wgt>
<wgt id='1284'> +4.0734933E-01 </wgt>
<wgt id='1285'> +4.0565132E-01 </wgt>
<wgt id='1286'> +4.0543901E-01 </wgt>
<wgt id='1287'> +4.0668437E-01 </wgt>
<wgt id='1288'> +4.0782028E-01 </wgt>
<wgt id='1289'> +4.0609639E-01 </wgt>
<wgt id='1290'> +4.0717655E-01 </wgt>
<wgt id='1291'> +4.0642534E-01 </wgt>
<wgt id='1292'> +4.0959934E-01 </wgt>
<wgt id='1293'> +4.0306602E-01 </wgt>
<wgt id='1294'> +4.0555538E-01 </wgt>
<wgt id='1295'> +4.0564414E-01 </wgt>
<wgt id='1296'> +4.0737370E-01 </wgt>
<wgt id='1297'> +4.0849002E-01 </wgt>
<wgt id='1298'> +4.0645876E-01 </wgt>
<wgt id='1299'> +4.0745499E-01 </wgt>
<wgt id='1300'> +4.0727488E-01 </wgt>
<wgt id='1301'> +4.0653173E-01 </wgt>
<wgt id='1302'> +4.0861953E-01 </wgt>
<wgt id='1303'> +4.0646001E-01 </wgt>
<wgt id='1304'> +4.0798198E-01 </wgt>
<wgt id='1305'> +4.0748171E-01 </wgt>
<wgt id='1306'> +4.0721783E-01 </wgt>
<wgt id='1307'> +4.0798568E-01 </wgt>
<wgt id='1308'> +4.0698043E-01 </wgt>
<wgt id='1309'> +4.0738088E-01 </wgt>
<wgt id='1310'> +4.0736570E-01 </wgt>
<wgt id='1311'> +4.0995560E-01 </wgt>
<wgt id='1312'> +4.0642827E-01 </wgt>
<wgt id='1313'> +4.0381587E-01 </wgt>
<wgt id='1314'> +4.1176069E-01 </wgt>
<wgt id='1315'> +4.0824833E-01 </wgt>
<wgt id='1316'> +4.0653187E-01 </wgt>
<wgt id='1317'> +4.1007774E-01 </wgt>
<wgt id='1318'> +4.0290147E-01 </wgt>
<wgt id='1319'> +4.0452469E-01 </wgt>
<wgt id='1320'> +4.0942205E-01 </wgt>
<wgt id='1321'> +4.0455380E-01 </wgt>
<wgt id='1322'> +4.0873716E-01 </wgt>
<wgt id='1323'> +4.0623008E-01 </wgt>
<wgt id='1324'> +4.0857924E-01 </wgt>
<wgt id='1325'> +4.0705588E-01 </wgt>
<wgt id='1326'> +4.0766955E-01 </wgt>
<wgt id='1327'> +4.0755801E-01 </wgt>
<wgt id='1328'> +4.0730081E-01 </wgt>
<wgt id='1329'> +4.0797958E-01 </wgt>
<wgt id='1330'> +4.0705583E-01 </wgt>
<wgt id='1331'> +4.0604074E-01 </wgt>
<wgt id='1332'> +4.0793444E-01 </wgt>
<wgt id='1333'> +4.0921191E-01 </wgt>
<wgt id='1334'> +4.0781810E-01 </wgt>
<wgt id='1335'> +4.0782028E-01 </wgt>
<wgt id='1336'> +4.0724141E-01 </wgt>
<wgt id='1337'> +4.0737370E-01 </wgt>
<wgt id='1338'> +4.0732340E-01 </wgt>
<wgt id='1339'> +4.0732242E-01 </wgt>
<wgt id='1340'> +4.0730598E-01 </wgt>
<wgt id='1341'> +4.0725151E-01 </wgt>
<wgt id='1342'> +4.0722373E-01 </wgt>
<wgt id='1343'> +4.0719222E-01 </wgt>
<wgt id='1344'> +3.9761968E-01 </wgt>
<wgt id='1345'> +3.9911233E-01 </wgt>
<wgt id='1346'> +3.9613141E-01 </wgt>
<wgt id='1347'> +3.9810374E-01 </wgt>
<wgt id='1348'> +3.9724024E-01 </wgt>
<wgt id='1349'> +3.9645511E-01 </wgt>
<wgt id='1350'> +3.9860034E-01 </wgt>
<wgt id='1351'> +3.9759847E-01 </wgt>
<wgt id='1352'> +3.9763958E-01 </wgt>
<wgt id='1353'> +3.9858260E-01 </wgt>
<wgt id='1354'> +3.9693549E-01 </wgt>
<wgt id='1355'> +3.9757428E-01 </wgt>
<wgt id='1356'> +3.9764678E-01 </wgt>
<wgt id='1357'> +3.9772611E-01 </wgt>
<wgt id='1358'> +3.9754707E-01 </wgt>
<wgt id='1359'> +3.9649174E-01 </wgt>
<wgt id='1360'> +4.0041967E-01 </wgt>
<wgt id='1361'> +3.9225459E-01 </wgt>
<wgt id='1362'> +4.0242246E-01 </wgt>
<wgt id='1363'> +3.9628307E-01 </wgt>
<wgt id='1364'> +3.9927314E-01 </wgt>
<wgt id='1365'> +3.9617749E-01 </wgt>
<wgt id='1366'> +3.9837513E-01 </wgt>
<wgt id='1367'> +3.9459167E-01 </wgt>
<wgt id='1368'> +3.9904845E-01 </wgt>
<wgt id='1369'> +3.9978711E-01 </wgt>
<wgt id='1370'> +3.9559802E-01 </wgt>
<wgt id='1371'> +3.9768711E-01 </wgt>
<wgt id='1372'> +3.9753345E-01 </wgt>
<wgt id='1373'> +3.9963900E-01 </wgt>
<wgt id='1374'> +3.9756166E-01 </wgt>
<wgt id='1375'> +3.9844728E-01 </wgt>
<wgt id='1376'> +3.9744008E-01 </wgt>
<wgt id='1377'> +3.9754793E-01 </wgt>
<wgt id='1378'> +3.9794623E-01 </wgt>
<wgt id='1379'> +3.9874982E-01 </wgt>
<wgt id='1380'> +3.9614130E-01 </wgt>
<wgt id='1381'> +3.9582265E-01 </wgt>
<wgt id='1382'> +4.0039516E-01 </wgt>
<wgt id='1383'> +3.9736227E-01 </wgt>
<wgt id='1384'> +3.9903734E-01 </wgt>
<wgt id='1385'> +3.9761968E-01 </wgt>
<wgt id='1386'> +3.9762101E-01 </wgt>
<wgt id='1387'> +3.9762617E-01 </wgt>
<wgt id='1388'> +3.9756279E-01 </wgt>
<wgt id='1389'> +3.9746034E-01 </wgt>
<wgt id='1390'> +3.9739039E-01 </wgt>
<wgt id='1391'> +3.9726161E-01 </wgt>
<wgt id='1392'> +4.1682868E-01 </wgt>
<wgt id='1393'> +4.1659393E-01 </wgt>
<wgt id='1394'> +4.1708363E-01 </wgt>
<wgt id='1395'> +4.1721840E-01 </wgt>
<wgt id='1396'> +4.1654843E-01 </wgt>
<wgt id='1397'> +4.1800394E-01 </wgt>
<wgt id='1398'> +4.1570029E-01 </wgt>
<wgt id='1399'> +4.1645412E-01 </wgt>
<wgt id='1400'> +4.1729549E-01 </wgt>
<wgt id='1401'> +4.1570548E-01 </wgt>
<wgt id='1402'> +4.1821782E-01 </wgt>
<wgt id='1403'> +4.1673683E-01 </wgt>
<wgt id='1404'> +4.1701716E-01 </wgt>
<wgt id='1405'> +4.1608689E-01 </wgt>
<wgt id='1406'> +4.1786667E-01 </wgt>
<wgt id='1407'> +4.1710924E-01 </wgt>
<wgt id='1408'> +4.1663908E-01 </wgt>
<wgt id='1409'> +4.1801666E-01 </wgt>
<wgt id='1410'> +4.1543965E-01 </wgt>
<wgt id='1411'> +4.1517699E-01 </wgt>
<wgt id='1412'> +4.1808893E-01 </wgt>
<wgt id='1413'> +4.1593156E-01 </wgt>
<wgt id='1414'> +4.1777541E-01 </wgt>
<wgt id='1415'> +4.1925281E-01 </wgt>
<wgt id='1416'> +4.1432790E-01 </wgt>
<wgt id='1417'> +4.1283504E-01 </wgt>
<wgt id='1418'> +4.2171971E-01 </wgt>
<wgt id='1419'> +4.1749254E-01 </wgt>
<wgt id='1420'> +4.1601458E-01 </wgt>
<wgt id='1421'> +4.1508647E-01 </wgt>
<wgt id='1422'> +4.1895128E-01 </wgt>
<wgt id='1423'> +4.1125580E-01 </wgt>
<wgt id='1424'> +4.2113718E-01 </wgt>
<wgt id='1425'> +4.1731737E-01 </wgt>
<wgt id='1426'> +4.1641556E-01 </wgt>
<wgt id='1427'> +4.1675353E-01 </wgt>
<wgt id='1428'> +4.1591362E-01 </wgt>
<wgt id='1429'> +4.1592795E-01 </wgt>
<wgt id='1430'> +4.1757268E-01 </wgt>
<wgt id='1431'> +4.1569298E-01 </wgt>
<wgt id='1432'> +4.1786524E-01 </wgt>
<wgt id='1433'> +4.1427034E-01 </wgt>
<wgt id='1434'> +4.2067824E-01 </wgt>
<wgt id='1435'> +4.1686702E-01 </wgt>
<wgt id='1436'> +4.1699532E-01 </wgt>
<wgt id='1437'> +4.1588143E-01 </wgt>
<wgt id='1438'> +4.1937613E-01 </wgt>
<wgt id='1439'> +4.1925611E-01 </wgt>
<wgt id='1440'> +4.1519180E-01 </wgt>
<wgt id='1441'> +4.1709367E-01 </wgt>
<wgt id='1442'> +4.1681804E-01 </wgt>
<wgt id='1443'> +4.0915082E-01 </wgt>
<wgt id='1444'> +4.0890871E-01 </wgt>
<wgt id='1445'> +4.0941099E-01 </wgt>
<wgt id='1446'> +4.0955431E-01 </wgt>
<wgt id='1447'> +4.0888120E-01 </wgt>
<wgt id='1448'> +4.1035908E-01 </wgt>
<wgt id='1449'> +4.0802776E-01 </wgt>
<wgt id='1450'> +4.0873970E-01 </wgt>
<wgt id='1451'> +4.0960624E-01 </wgt>
<wgt id='1452'> +4.0799050E-01 </wgt>
<wgt id='1453'> +4.1028082E-01 </wgt>
<wgt id='1454'> +4.0896353E-01 </wgt>
<wgt id='1455'> +4.0955247E-01 </wgt>
<wgt id='1456'> +4.0829405E-01 </wgt>
<wgt id='1457'> +4.1067870E-01 </wgt>
<wgt id='1458'> +4.0956534E-01 </wgt>
<wgt id='1459'> +4.0892190E-01 </wgt>
<wgt id='1460'> +4.1002903E-01 </wgt>
<wgt id='1461'> +4.0805894E-01 </wgt>
<wgt id='1462'> +4.0729801E-01 </wgt>
<wgt id='1463'> +4.1074191E-01 </wgt>
<wgt id='1464'> +4.0853748E-01 </wgt>
<wgt id='1465'> +4.0995289E-01 </wgt>
<wgt id='1466'> +4.1293483E-01 </wgt>
<wgt id='1467'> +4.0655199E-01 </wgt>
<wgt id='1468'> +4.1390938E-01 </wgt>
<wgt id='1469'> +4.0447274E-01 </wgt>
<wgt id='1470'> +4.0990749E-01 </wgt>
<wgt id='1471'> +4.0843757E-01 </wgt>
<wgt id='1472'> +4.0788564E-01 </wgt>
<wgt id='1473'> +4.1071617E-01 </wgt>
<wgt id='1474'> +4.0525904E-01 </wgt>
<wgt id='1475'> +4.1363194E-01 </wgt>
<wgt id='1476'> +4.1058540E-01 </wgt>
<wgt id='1477'> +4.0803955E-01 </wgt>
<wgt id='1478'> +4.0917889E-01 </wgt>
<wgt id='1479'> +4.0804093E-01 </wgt>
<wgt id='1480'> +4.0835634E-01 </wgt>
<wgt id='1481'> +4.0974798E-01 </wgt>
<wgt id='1482'> +4.0808073E-01 </wgt>
<wgt id='1483'> +4.1028352E-01 </wgt>
<wgt id='1484'> +4.0655306E-01 </wgt>
<wgt id='1485'> +4.1287527E-01 </wgt>
<wgt id='1486'> +4.0963485E-01 </wgt>
<wgt id='1487'> +4.0914159E-01 </wgt>
<wgt id='1488'> +4.0806100E-01 </wgt>
<wgt id='1489'> +4.1193737E-01 </wgt>
<wgt id='1490'> +4.1178647E-01 </wgt>
<wgt id='1491'> +4.0785405E-01 </wgt>
<wgt id='1492'> +4.0972455E-01 </wgt>
<wgt id='1493'> +4.0912442E-01 </wgt>
<wgt id='1494'> +3.9973151E-01 </wgt>
<wgt id='1495'> +3.8911212E-01 </wgt>
<wgt id='1496'> +3.9271653E-01 </wgt>
<wgt id='1497'> +3.9612285E-01 </wgt>
<wgt id='1498'> +4.0352306E-01 </wgt>
<wgt id='1499'> +3.9977541E-01 </wgt>
<wgt id='1500'> +4.0287817E-01 </wgt>
<wgt id='1501'> +4.0244382E-01 </wgt>
<wgt id='1502'> +4.0192268E-01 </wgt>
<wgt id='1503'> +4.0128924E-01 </wgt>
<wgt id='1504'> +4.0059271E-01 </wgt>
<wgt id='1505'> +3.9889878E-01 </wgt>
<wgt id='1506'> +3.9800332E-01 </wgt>
<wgt id='1507'> +3.9705884E-01 </wgt>
<wgt id='1508'> +3.9977541E-01 </wgt>
<wgt id='1509'> +3.9992335E-01 </wgt>
<wgt id='1510'> +3.9983372E-01 </wgt>
<wgt id='1511'> +3.9976195E-01 </wgt>
<wgt id='1512'> +3.9974578E-01 </wgt>
<wgt id='1513'> +3.9882749E-01 </wgt>
<wgt id='1514'> +3.9842353E-01 </wgt>
<wgt id='1515'> +3.9934947E-01 </wgt>
<wgt id='1516'> +3.9918279E-01 </wgt>
<wgt id='1517'> +3.9847663E-01 </wgt>
<wgt id='1518'> +3.9972771E-01 </wgt>
<wgt id='1519'> +3.9846725E-01 </wgt>
<wgt id='1520'> +3.9907266E-01 </wgt>
<wgt id='1521'> +3.9858050E-01 </wgt>
<wgt id='1522'> +3.9826634E-01 </wgt>
<wgt id='1523'> +3.9936614E-01 </wgt>
<wgt id='1524'> +4.0048928E-01 </wgt>
<wgt id='1525'> +3.9811005E-01 </wgt>
<wgt id='1526'> +3.9836885E-01 </wgt>
<wgt id='1527'> +3.9938978E-01 </wgt>
<wgt id='1528'> +3.9846511E-01 </wgt>
<wgt id='1529'> +3.9922381E-01 </wgt>
<wgt id='1530'> +3.9925194E-01 </wgt>
<wgt id='1531'> +3.9857354E-01 </wgt>
<wgt id='1532'> +4.0090845E-01 </wgt>
<wgt id='1533'> +3.9598154E-01 </wgt>
<wgt id='1534'> +3.9787094E-01 </wgt>
<wgt id='1535'> +3.9949436E-01 </wgt>
<wgt id='1536'> +3.9860217E-01 </wgt>
<wgt id='1537'> +3.9906285E-01 </wgt>
<wgt id='1538'> +3.9694474E-01 </wgt>
<wgt id='1539'> +4.0333568E-01 </wgt>
<wgt id='1540'> +3.9873140E-01 </wgt>
<wgt id='1541'> +3.9845973E-01 </wgt>
<wgt id='1542'> +4.0034617E-01 </wgt>
<wgt id='1543'> +3.9514996E-01 </wgt>
<wgt id='1544'> +3.9675155E-01 </wgt>
<wgt id='1545'> +4.0294927E-01 </wgt>
<wgt id='1546'> +3.9905202E-01 </wgt>
<wgt id='1547'> +3.9832131E-01 </wgt>
<wgt id='1548'> +3.9787905E-01 </wgt>
<wgt id='1549'> +3.9895018E-01 </wgt>
<wgt id='1550'> +3.9864493E-01 </wgt>
<wgt id='1551'> +3.9894358E-01 </wgt>
<wgt id='1552'> +3.9736991E-01 </wgt>
<wgt id='1553'> +3.9984571E-01 </wgt>
<wgt id='1554'> +4.0079682E-01 </wgt>
<wgt id='1555'> +3.9597627E-01 </wgt>
<wgt id='1556'> +3.9918542E-01 </wgt>
<wgt id='1557'> +3.9658631E-01 </wgt>
<wgt id='1558'> +3.9665252E-01 </wgt>
<wgt id='1559'> +4.0110545E-01 </wgt>
<wgt id='1560'> +4.0173038E-01 </wgt>
<wgt id='1561'> +3.9757668E-01 </wgt>
<wgt id='1562'> +3.9758970E-01 </wgt>
<wgt id='1563'> +3.9994761E-01 </wgt>
<wgt id='1564'> +3.9882749E-01 </wgt>
<wgt id='1565'> +3.9395259E-01 </wgt>
<wgt id='1566'> +4.0285438E-01 </wgt>
<wgt id='1567'> +3.9823340E-01 </wgt>
<wgt id='1568'> +4.0191375E-01 </wgt>
<wgt id='1569'> +4.0135407E-01 </wgt>
<wgt id='1570'> +4.0064594E-01 </wgt>
<wgt id='1571'> +3.9978684E-01 </wgt>
<wgt id='1572'> +3.9910575E-01 </wgt>
<wgt id='1573'> +3.9708900E-01 </wgt>
<wgt id='1574'> +3.9585593E-01 </wgt>
<wgt id='1575'> +3.9483260E-01 </wgt>
<wgt id='1576'> +3.9823340E-01 </wgt>
<wgt id='1577'> +3.9815326E-01 </wgt>
<wgt id='1578'> +3.9814530E-01 </wgt>
<wgt id='1579'> +3.9831336E-01 </wgt>
<wgt id='1580'> +3.9842542E-01 </wgt>
<wgt id='1581'> +3.9818055E-01 </wgt>
<wgt id='1582'> +3.9822695E-01 </wgt>
<wgt id='1583'> +3.9782228E-01 </wgt>
<wgt id='1584'> +3.9723707E-01 </wgt>
<wgt id='1585'> +3.9837605E-01 </wgt>
<wgt id='1586'> +3.9223413E-01 </wgt>
<wgt id='1587'> +3.9758224E-01 </wgt>
<wgt id='1588'> +3.9851325E-01 </wgt>
<wgt id='1589'> +3.9807981E-01 </wgt>
<wgt id='1590'> +4.0142913E-01 </wgt>
<wgt id='1591'> +3.9753355E-01 </wgt>
<wgt id='1592'> +3.9172095E-01 </wgt>
<wgt id='1593'> +3.9867511E-01 </wgt>
<wgt id='1594'> +3.9402208E-01 </wgt>
<wgt id='1595'> +3.9839207E-01 </wgt>
<wgt id='1596'> +4.0027025E-01 </wgt>
<wgt id='1597'> +3.9975121E-01 </wgt>
<wgt id='1598'> +3.9624961E-01 </wgt>
<wgt id='1599'> +3.9747849E-01 </wgt>
<wgt id='1600'> +3.9920493E-01 </wgt>
<wgt id='1601'> +3.9672372E-01 </wgt>
<wgt id='1602'> +3.9893704E-01 </wgt>
<wgt id='1603'> +3.9850867E-01 </wgt>
<wgt id='1604'> +3.9740388E-01 </wgt>
<wgt id='1605'> +3.9778874E-01 </wgt>
<wgt id='1606'> +3.9838888E-01 </wgt>
<wgt id='1607'> +3.9859443E-01 </wgt>
<wgt id='1608'> +3.9709074E-01 </wgt>
<wgt id='1609'> +3.9829951E-01 </wgt>
<wgt id='1610'> +3.9802761E-01 </wgt>
<wgt id='1611'> +4.0015582E-01 </wgt>
<wgt id='1612'> +3.9339268E-01 </wgt>
<wgt id='1613'> +3.9352435E-01 </wgt>
<wgt id='1614'> +3.9335882E-01 </wgt>
<wgt id='1615'> +3.9303070E-01 </wgt>
<wgt id='1616'> +3.9398849E-01 </wgt>
<wgt id='1617'> +3.9392127E-01 </wgt>
<wgt id='1618'> +3.9353963E-01 </wgt>
<wgt id='1619'> +3.9400857E-01 </wgt>
<wgt id='1620'> +3.9372615E-01 </wgt>
<wgt id='1621'> +3.9379638E-01 </wgt>
<wgt id='1622'> +3.9317631E-01 </wgt>
<wgt id='1623'> +3.9200341E-01 </wgt>
<wgt id='1624'> +3.9230482E-01 </wgt>
<wgt id='1625'> +3.9153952E-01 </wgt>
<wgt id='1626'> +3.9283858E-01 </wgt>
<wgt id='1627'> +3.9226589E-01 </wgt>
<wgt id='1628'> +3.9410436E-01 </wgt>
<wgt id='1629'> +3.9316995E-01 </wgt>
<wgt id='1630'> +3.9170354E-01 </wgt>
<wgt id='1631'> +3.9379848E-01 </wgt>
<wgt id='1632'> +3.9155011E-01 </wgt>
<wgt id='1633'> +3.9489897E-01 </wgt>
<wgt id='1634'> +3.9185427E-01 </wgt>
<wgt id='1635'> +3.9192078E-01 </wgt>
<wgt id='1636'> +3.9257610E-01 </wgt>
<wgt id='1637'> +3.9170021E-01 </wgt>
<wgt id='1638'> +3.9155029E-01 </wgt>
<wgt id='1639'> +3.9339047E-01 </wgt>
<wgt id='1640'> +3.9384295E-01 </wgt>
<wgt id='1641'> +3.9366424E-01 </wgt>
<wgt id='1642'> +3.9432215E-01 </wgt>
<wgt id='1643'> +3.9325269E-01 </wgt>
<wgt id='1644'> +3.9383874E-01 </wgt>
<wgt id='1645'> +3.9339725E-01 </wgt>
<wgt id='1646'> +3.9356599E-01 </wgt>
<wgt id='1647'> +3.9264240E-01 </wgt>
<wgt id='1648'> +3.9198382E-01 </wgt>
<wgt id='1649'> +3.9352083E-01 </wgt>
<wgt id='1650'> +3.9294360E-01 </wgt>
<wgt id='1651'> +3.9387875E-01 </wgt>
<wgt id='1652'> +3.9257795E-01 </wgt>
<wgt id='1653'> +3.9245473E-01 </wgt>
<wgt id='1654'> +3.9218122E-01 </wgt>
<wgt id='1655'> +3.9464428E-01 </wgt>
<wgt id='1656'> +3.9390642E-01 </wgt>
<wgt id='1657'> +3.9272453E-01 </wgt>
<wgt id='1658'> +3.9500591E-01 </wgt>
<wgt id='1659'> +3.9523708E-01 </wgt>
<wgt id='1660'> +3.9301850E-01 </wgt>
<wgt id='1661'> +3.9315501E-01 </wgt>
<wgt id='1662'> +3.9321702E-01 </wgt>
<wgt id='1663'> +3.9357638E-01 </wgt>
<wgt id='1664'> +3.9265271E-01 </wgt>
<wgt id='1665'> +3.9315453E-01 </wgt>
<wgt id='1666'> +3.9348657E-01 </wgt>
<wgt id='1667'> +3.9346927E-01 </wgt>
<wgt id='1668'> +3.9359502E-01 </wgt>
<wgt id='1669'> +3.9305820E-01 </wgt>
<wgt id='1670'> +3.9372002E-01 </wgt>
<wgt id='1671'> +3.9304547E-01 </wgt>
<wgt id='1672'> +3.9440916E-01 </wgt>
<wgt id='1673'> +3.9353652E-01 </wgt>
<wgt id='1674'> +3.9349994E-01 </wgt>
<wgt id='1675'> +3.9350439E-01 </wgt>
<wgt id='1676'> +3.9321325E-01 </wgt>
<wgt id='1677'> +3.9362445E-01 </wgt>
<wgt id='1678'> +3.9285030E-01 </wgt>
<wgt id='1679'> +3.9345962E-01 </wgt>
<wgt id='1680'> +3.9373348E-01 </wgt>
<wgt id='1681'> +3.9402100E-01 </wgt>
<wgt id='1682'> +3.9308114E-01 </wgt>
<wgt id='1683'> +3.9287522E-01 </wgt>
<wgt id='1684'> +3.9347449E-01 </wgt>
<wgt id='1685'> +3.9388591E-01 </wgt>
<wgt id='1686'> +3.9315679E-01 </wgt>
<wgt id='1687'> +3.9353379E-01 </wgt>
<wgt id='1688'> +3.9369078E-01 </wgt>
<wgt id='1689'> +3.9317623E-01 </wgt>
<wgt id='1690'> +3.9327646E-01 </wgt>
<wgt id='1691'> +3.9321913E-01 </wgt>
<wgt id='1692'> +3.9367780E-01 </wgt>
<wgt id='1693'> +3.9349195E-01 </wgt>
<wgt id='1694'> +3.9358470E-01 </wgt>
<wgt id='1695'> +3.9311426E-01 </wgt>
<wgt id='1696'> +3.9375224E-01 </wgt>
<wgt id='1697'> +3.9323926E-01 </wgt>
<wgt id='1698'> +3.9348566E-01 </wgt>
<wgt id='1699'> +3.9298138E-01 </wgt>
<wgt id='1700'> +3.9373365E-01 </wgt>
<wgt id='1701'> +3.9327052E-01 </wgt>
<wgt id='1702'> +3.9323427E-01 </wgt>
<wgt id='1703'> +3.9301248E-01 </wgt>
<wgt id='1704'> +3.9331757E-01 </wgt>
<wgt id='1705'> +3.9350160E-01 </wgt>
<wgt id='1706'> +3.9358547E-01 </wgt>
<wgt id='1707'> +3.9360697E-01 </wgt>
<wgt id='1708'> +3.9344189E-01 </wgt>
<wgt id='1709'> +3.9339205E-01 </wgt>
<wgt id='1710'> +3.9324033E-01 </wgt>
<wgt id='1711'> +3.9348629E-01 </wgt>
<wgt id='1712'> +3.9354622E-01 </wgt>
<wgt id='1713'> +3.8621697E-01 </wgt>
<wgt id='1714'> +4.0222041E-01 </wgt>
<wgt id='1715'> +3.9785018E-01 </wgt>
<wgt id='1716'> +3.9305574E-01 </wgt>
<wgt id='1717'> +4.1375580E-01 </wgt>
<wgt id='1718'> +3.9707135E-01 </wgt>
<wgt id='1719'> +3.9206534E-01 </wgt>
<wgt id='1720'> +4.0684079E-01 </wgt>
<wgt id='1721'> +4.0655746E-01 </wgt>
<wgt id='1722'> +3.9884991E-01 </wgt>
<wgt id='1723'> +3.9846093E-01 </wgt>
<wgt id='1724'> +3.9226735E-01 </wgt>
<wgt id='1725'> +3.9575991E-01 </wgt>
<wgt id='1726'> +3.8480216E-01 </wgt>
<wgt id='1727'> +3.9803358E-01 </wgt>
<wgt id='1728'> +3.9663922E-01 </wgt>
<wgt id='1729'> +3.9537673E-01 </wgt>
<wgt id='1730'> +3.9112138E-01 </wgt>
<wgt id='1731'> +3.8901512E-01 </wgt>
<wgt id='1732'> +3.9213529E-01 </wgt>
<wgt id='1733'> +3.9658211E-01 </wgt>
<wgt id='1734'> +4.1362149E-01 </wgt>
<wgt id='1735'> +3.8150631E-01 </wgt>
<wgt id='1736'> +4.0619803E-01 </wgt>
<wgt id='1737'> +3.9362668E-01 </wgt>
<wgt id='1738'> +4.1344611E-01 </wgt>
<wgt id='1739'> +4.0464241E-01 </wgt>
<wgt id='1740'> +4.0572286E-01 </wgt>
<wgt id='1741'> +3.9246125E-01 </wgt>
<wgt id='1742'> +3.9187366E-01 </wgt>
<wgt id='1743'> +3.9694553E-01 </wgt>
<wgt id='1744'> +3.9857543E-01 </wgt>
<wgt id='1745'> +3.9759556E-01 </wgt>
<wgt id='1746'> +3.9534924E-01 </wgt>
<wgt id='1747'> +4.0277042E-01 </wgt>
<wgt id='1748'> +3.8969391E-01 </wgt>
<wgt id='1749'> +3.9163852E-01 </wgt>
<wgt id='1750'> +3.8906388E-01 </wgt>
<wgt id='1751'> +4.0394841E-01 </wgt>
<wgt id='1752'> +4.1222263E-01 </wgt>
<wgt id='1753'> +3.9672278E-01 </wgt>
<wgt id='1754'> +3.8832098E-01 </wgt>
<wgt id='1755'> +3.9258486E-01 </wgt>
<wgt id='1756'> +4.1842480E-01 </wgt>
<wgt id='1757'> +3.8684526E-01 </wgt>
<wgt id='1758'> +4.0082801E-01 </wgt>
<wgt id='1759'> +4.0297889E-01 </wgt>
<wgt id='1760'> +3.8876704E-01 </wgt>
<wgt id='1761'> +3.8853605E-01 </wgt>
<wgt id='1762'> +3.9803358E-01 </wgt>
<wgt id='1763'> +4.0346763E-01 </wgt>
<wgt id='1764'> +4.0068108E-01 </wgt>
<wgt id='1765'> +4.0688540E-01 </wgt>
<wgt id='1766'> +3.9856946E-01 </wgt>
<wgt id='1767'> +3.8774052E-01 </wgt>
<wgt id='1768'> +3.7663473E-01 </wgt>
<wgt id='1769'> +4.0657345E-01 </wgt>
<wgt id='1770'> +3.9169810E-01 </wgt>
<wgt id='1771'> +3.9227671E-01 </wgt>
<wgt id='1772'> +3.9471581E-01 </wgt>
<wgt id='1773'> +4.0022001E-01 </wgt>
<wgt id='1774'> +3.9925054E-01 </wgt>
<wgt id='1775'> +4.0265291E-01 </wgt>
<wgt id='1776'> +4.0170354E-01 </wgt>
<wgt id='1777'> +3.9999626E-01 </wgt>
<wgt id='1778'> +3.9875644E-01 </wgt>
<wgt id='1779'> +3.9754283E-01 </wgt>
<wgt id='1780'> +4.1292434E-01 </wgt>
<wgt id='1781'> +3.9945835E-01 </wgt>
<wgt id='1782'> +3.8541662E-01 </wgt>
<wgt id='1783'> +4.0490354E-01 </wgt>
<wgt id='1784'> +3.9380578E-01 </wgt>
<wgt id='1785'> +3.9834054E-01 </wgt>
<wgt id='1786'> +3.9533867E-01 </wgt>
<wgt id='1787'> +3.9817160E-01 </wgt>
<wgt id='1788'> +3.9948791E-01 </wgt>
<wgt id='1789'> +3.9920830E-01 </wgt>
<wgt id='1790'> +3.9790814E-01 </wgt>
<wgt id='1791'> +4.0412542E-01 </wgt>
<wgt id='1792'> +4.0841692E-01 </wgt>
<wgt id='1793'> +3.9841443E-01 </wgt>
<wgt id='1794'> +3.9200313E-01 </wgt>
<wgt id='1795'> +4.0317190E-01 </wgt>
<wgt id='1796'> +3.9272782E-01 </wgt>
<wgt id='1797'> +4.0332215E-01 </wgt>
<wgt id='1798'> +4.0716322E-01 </wgt>
<wgt id='1799'> +3.9364216E-01 </wgt>
<wgt id='1800'> +3.9937180E-01 </wgt>
<wgt id='1801'> +3.9856423E-01 </wgt>
<wgt id='1802'> +3.9494330E-01 </wgt>
<wgt id='1803'> +3.9712535E-01 </wgt>
<wgt id='1804'> +4.0465493E-01 </wgt>
<wgt id='1805'> +3.9815958E-01 </wgt>
<wgt id='1806'> +4.0330993E-01 </wgt>
<wgt id='1807'> +4.0153721E-01 </wgt>
<wgt id='1808'> +3.8415255E-01 </wgt>
<wgt id='1809'> +4.0643738E-01 </wgt>
<wgt id='1810'> +3.9466527E-01 </wgt>
<wgt id='1811'> +3.9473115E-01 </wgt>
<wgt id='1812'> +3.9218378E-01 </wgt>
<wgt id='1813'> +3.9844396E-01 </wgt>
<wgt id='1814'> +3.9030791E-01 </wgt>
<wgt id='1815'> +3.9531320E-01 </wgt>
<wgt id='1816'> +4.0116847E-01 </wgt>
<wgt id='1817'> +4.1304701E-01 </wgt>
<wgt id='1818'> +4.1030843E-01 </wgt>
<wgt id='1819'> +4.1485886E-01 </wgt>
<wgt id='1820'> +3.9333729E-01 </wgt>
<wgt id='1821'> +4.1601326E-01 </wgt>
<wgt id='1822'> +3.9737057E-01 </wgt>
<wgt id='1823'> +3.9893050E-01 </wgt>
<wgt id='1824'> +3.9680996E-01 </wgt>
<wgt id='1825'> +3.9878238E-01 </wgt>
<wgt id='1826'> +4.1483605E-01 </wgt>
<wgt id='1827'> +4.0026719E-01 </wgt>
<wgt id='1828'> +3.9776104E-01 </wgt>
<wgt id='1829'> +3.9313917E-01 </wgt>
<wgt id='1830'> +4.1118880E-01 </wgt>
<wgt id='1831'> +4.0427048E-01 </wgt>
<wgt id='1832'> +4.0297457E-01 </wgt>
<wgt id='1833'> +4.0927416E-01 </wgt>
<wgt id='1834'> +3.9993377E-01 </wgt>
<wgt id='1835'> +3.9462174E-01 </wgt>
<wgt id='1836'> +3.9919184E-01 </wgt>
<wgt id='1837'> +3.9876309E-01 </wgt>
<wgt id='1838'> +4.0082314E-01 </wgt>
<wgt id='1839'> +3.9980516E-01 </wgt>
<wgt id='1840'> +3.9973832E-01 </wgt>
<wgt id='1841'> +3.9725483E-01 </wgt>
<wgt id='1842'> +3.9564019E-01 </wgt>
<wgt id='1843'> +4.0118516E-01 </wgt>
<wgt id='1844'> +4.0520121E-01 </wgt>
<wgt id='1845'> +4.0700568E-01 </wgt>
<wgt id='1846'> +3.9960652E-01 </wgt>
<wgt id='1847'> +3.9382929E-01 </wgt>
<wgt id='1848'> +4.0059236E-01 </wgt>
<wgt id='1849'> +3.9202372E-01 </wgt>
<wgt id='1850'> +3.9988639E-01 </wgt>
<wgt id='1851'> +3.9901537E-01 </wgt>
<wgt id='1852'> +3.9590325E-01 </wgt>
<wgt id='1853'> +3.9603363E-01 </wgt>
<wgt id='1854'> +4.0114720E-01 </wgt>
<wgt id='1855'> +4.0265323E-01 </wgt>
<wgt id='1856'> +3.9637407E-01 </wgt>
<wgt id='1857'> +4.0462396E-01 </wgt>
<wgt id='1858'> +3.9935971E-01 </wgt>
<wgt id='1859'> +3.9499401E-01 </wgt>
<wgt id='1860'> +4.0410778E-01 </wgt>
<wgt id='1861'> +4.1088345E-01 </wgt>
<wgt id='1862'> +4.0309170E-01 </wgt>
<wgt id='1863'> +4.0098019E-01 </wgt>
<wgt id='1864'> +4.0393107E-01 </wgt>
<wgt id='1865'> +4.0461251E-01 </wgt>
<wgt id='1866'> +4.0361220E-01 </wgt>
<wgt id='1867'> +3.9966249E-01 </wgt>
<wgt id='1868'> +4.0438969E-01 </wgt>
<wgt id='1869'> +4.0742141E-01 </wgt>
<wgt id='1870'> +3.9396350E-01 </wgt>
<wgt id='1871'> +3.9940039E-01 </wgt>
<wgt id='1872'> +4.1193598E-01 </wgt>
<wgt id='1873'> +3.9641118E-01 </wgt>
<wgt id='1874'> +4.0611926E-01 </wgt>
<wgt id='1875'> +4.0638542E-01 </wgt>
<wgt id='1876'> +4.0077584E-01 </wgt>
<wgt id='1877'> +3.9890987E-01 </wgt>
<wgt id='1878'> +4.0757294E-01 </wgt>
<wgt id='1879'> +3.9694562E-01 </wgt>
<wgt id='1880'> +3.9916353E-01 </wgt>
<wgt id='1881'> +3.8464521E-01 </wgt>
<wgt id='1882'> +3.9759095E-01 </wgt>
<wgt id='1883'> +4.0632251E-01 </wgt>
<wgt id='1884'> +3.9946583E-01 </wgt>
<wgt id='1885'> +3.9530539E-01 </wgt>
<wgt id='1886'> +3.9220382E-01 </wgt>
<wgt id='1887'> +4.0127838E-01 </wgt>
<wgt id='1888'> +3.9982516E-01 </wgt>
<wgt id='1889'> +4.1455703E-01 </wgt>
<wgt id='1890'> +4.0744278E-01 </wgt>
<wgt id='1891'> +4.0751474E-01 </wgt>
<wgt id='1892'> +4.0182366E-01 </wgt>
<wgt id='1893'> +3.9376780E-01 </wgt>
<wgt id='1894'> +3.9409666E-01 </wgt>
<wgt id='1895'> +4.0119628E-01 </wgt>
<wgt id='1896'> +3.9373461E-01 </wgt>
<wgt id='1897'> +4.0291637E-01 </wgt>
<wgt id='1898'> +4.0427204E-01 </wgt>
<wgt id='1899'> +3.9671983E-01 </wgt>
<wgt id='1900'> +4.0548306E-01 </wgt>
<wgt id='1901'> +4.0672392E-01 </wgt>
<wgt id='1902'> +3.9986495E-01 </wgt>
<wgt id='1903'> +4.0830246E-01 </wgt>
<wgt id='1904'> +4.0663167E-01 </wgt>
<wgt id='1905'> +3.9539160E-01 </wgt>
<wgt id='1906'> +3.9886036E-01 </wgt>
<wgt id='1907'> +3.9665047E-01 </wgt>
<wgt id='1908'> +3.9373584E-01 </wgt>
<wgt id='1909'> +4.0349466E-01 </wgt>
<wgt id='1910'> +4.0985902E-01 </wgt>
<wgt id='1911'> +4.0283093E-01 </wgt>
<wgt id='1912'> +3.9360305E-01 </wgt>
<wgt id='1913'> +4.0033514E-01 </wgt>
<wgt id='1914'> +3.9579065E-01 </wgt>
<wgt id='1915'> +3.9737538E-01 </wgt>
<wgt id='1916'> +3.9467217E-01 </wgt>
<wgt id='1917'> +3.8962682E-01 </wgt>
<wgt id='1918'> +3.9717913E-01 </wgt>
<wgt id='1919'> +4.0116847E-01 </wgt>
<wgt id='1920'> +4.1304701E-01 </wgt>
<wgt id='1921'> +4.1030843E-01 </wgt>
<wgt id='1922'> +4.1485886E-01 </wgt>
<wgt id='1923'> +3.9333729E-01 </wgt>
<wgt id='1924'> +4.1601326E-01 </wgt>
<wgt id='1925'> +3.9737057E-01 </wgt>
<wgt id='1926'> +3.9893050E-01 </wgt>
<wgt id='1927'> +3.9680996E-01 </wgt>
<wgt id='1928'> +3.9878238E-01 </wgt>
<wgt id='1929'> +4.1483605E-01 </wgt>
<wgt id='1930'> +4.0026719E-01 </wgt>
<wgt id='1931'> +3.9776104E-01 </wgt>
<wgt id='1932'> +3.9313917E-01 </wgt>
<wgt id='1933'> +4.1118880E-01 </wgt>
<wgt id='1934'> +4.0427048E-01 </wgt>
<wgt id='1935'> +4.0297457E-01 </wgt>
<wgt id='1936'> +4.0927416E-01 </wgt>
<wgt id='1937'> +3.9993377E-01 </wgt>
<wgt id='1938'> +3.9462174E-01 </wgt>
<wgt id='1939'> +3.9919184E-01 </wgt>
<wgt id='1940'> +3.9876309E-01 </wgt>
<wgt id='1941'> +4.0082314E-01 </wgt>
<wgt id='1942'> +3.9980516E-01 </wgt>
<wgt id='1943'> +3.9973832E-01 </wgt>
<wgt id='1944'> +3.9725483E-01 </wgt>
<wgt id='1945'> +3.9564019E-01 </wgt>
<wgt id='1946'> +4.0118516E-01 </wgt>
<wgt id='1947'> +4.0520121E-01 </wgt>
<wgt id='1948'> +4.0700568E-01 </wgt>
<wgt id='1949'> +3.9960652E-01 </wgt>
<wgt id='1950'> +3.9382929E-01 </wgt>
<wgt id='1951'> +4.0059236E-01 </wgt>
<wgt id='1952'> +3.9202372E-01 </wgt>
<wgt id='1953'> +3.9988639E-01 </wgt>
<wgt id='1954'> +3.9901537E-01 </wgt>
<wgt id='1955'> +3.9590325E-01 </wgt>
<wgt id='1956'> +3.9603363E-01 </wgt>
<wgt id='1957'> +4.0114720E-01 </wgt>
<wgt id='1958'> +4.0265323E-01 </wgt>
<wgt id='1959'> +3.9637407E-01 </wgt>
<wgt id='1960'> +4.0462396E-01 </wgt>
<wgt id='1961'> +3.9935971E-01 </wgt>
<wgt id='1962'> +3.9499401E-01 </wgt>
<wgt id='1963'> +4.0410778E-01 </wgt>
<wgt id='1964'> +4.1088345E-01 </wgt>
<wgt id='1965'> +4.0309170E-01 </wgt>
<wgt id='1966'> +4.0098019E-01 </wgt>
<wgt id='1967'> +4.0393107E-01 </wgt>
<wgt id='1968'> +4.0461251E-01 </wgt>
<wgt id='1969'> +4.0361220E-01 </wgt>
<wgt id='1970'> +3.9966249E-01 </wgt>
<wgt id='1971'> +4.0438969E-01 </wgt>
<wgt id='1972'> +4.0742141E-01 </wgt>
<wgt id='1973'> +3.9396350E-01 </wgt>
<wgt id='1974'> +3.9940039E-01 </wgt>
<wgt id='1975'> +4.1193598E-01 </wgt>
<wgt id='1976'> +3.9641118E-01 </wgt>
<wgt id='1977'> +4.0611926E-01 </wgt>
<wgt id='1978'> +4.0638542E-01 </wgt>
<wgt id='1979'> +4.0077584E-01 </wgt>
<wgt id='1980'> +3.9890987E-01 </wgt>
<wgt id='1981'> +4.0757294E-01 </wgt>
<wgt id='1982'> +3.9694562E-01 </wgt>
<wgt id='1983'> +3.9916353E-01 </wgt>
<wgt id='1984'> +3.8464521E-01 </wgt>
<wgt id='1985'> +3.9759095E-01 </wgt>
<wgt id='1986'> +4.0632251E-01 </wgt>
<wgt id='1987'> +3.9946583E-01 </wgt>
<wgt id='1988'> +3.9530539E-01 </wgt>
<wgt id='1989'> +3.9220382E-01 </wgt>
<wgt id='1990'> +4.0127838E-01 </wgt>
<wgt id='1991'> +3.9982516E-01 </wgt>
<wgt id='1992'> +4.1455703E-01 </wgt>
<wgt id='1993'> +4.0744278E-01 </wgt>
<wgt id='1994'> +4.0751474E-01 </wgt>
<wgt id='1995'> +4.0182366E-01 </wgt>
<wgt id='1996'> +3.9376780E-01 </wgt>
<wgt id='1997'> +3.9409666E-01 </wgt>
<wgt id='1998'> +4.0119628E-01 </wgt>
<wgt id='1999'> +3.9373461E-01 </wgt>
<wgt id='2000'> +4.0291637E-01 </wgt>
<wgt id='2001'> +4.0427204E-01 </wgt>
<wgt id='2002'> +3.9671983E-01 </wgt>
<wgt id='2003'> +4.0548306E-01 </wgt>
<wgt id='2004'> +4.0672392E-01 </wgt>
<wgt id='2005'> +3.9986495E-01 </wgt>
<wgt id='2006'> +4.0830246E-01 </wgt>
<wgt id='2007'> +4.0663167E-01 </wgt>
<wgt id='2008'> +3.9539160E-01 </wgt>
<wgt id='2009'> +3.9886036E-01 </wgt>
<wgt id='2010'> +3.9665047E-01 </wgt>
<wgt id='2011'> +3.9373584E-01 </wgt>
<wgt id='2012'> +4.0349466E-01 </wgt>
<wgt id='2013'> +4.0985902E-01 </wgt>
<wgt id='2014'> +4.0283093E-01 </wgt>
<wgt id='2015'> +3.9360305E-01 </wgt>
<wgt id='2016'> +4.0033514E-01 </wgt>
<wgt id='2017'> +3.9579065E-01 </wgt>
<wgt id='2018'> +3.9737538E-01 </wgt>
<wgt id='2019'> +3.9467217E-01 </wgt>
<wgt id='2020'> +3.9813751E-01 </wgt>
<wgt id='2021'> +4.0356109E-01 </wgt>
<wgt id='2022'> +3.9561317E-01 </wgt>
</rwgt>
</event>
<event>
13      2 +3.9556008E-01 6.05487800e+02 7.81860800e-03 9.98548900e-02
       21 -1    0    0  502  503 +0.0000000000e+00 +0.0000000000e+00 +3.8053423033e+02 3.8053423033e+02 0.0000000000e+00 0.0000e+00 1.0000e+00
       -4 -1    0    0    0  501 +0.0000000000e+00 +0.0000000000e+00 -7.1196731946e+02 7.1196845217e+02 1.2700000000e+00 0.0000e+00 1.0000e+00
 -8000001  2    1    2    0  503 +1.1283310561e+02 +3.6265815418e+01 +7.7809626904e+01 6.1652301531e+02 5.9999980941e+02 0.0000e+00 0.0000e+00
       -3  1    1    2    0  501 -3.8524830872e+01 -5.8192309467e+01 -3.8975546617e+02 3.9595434217e+02 1.0100000000e-01 0.0000e+00 1.0000e+00
        5  1    1    2  502    0 -7.4308274741e+01 +2.1926494048e+01 -1.9487249867e+01 8.0025325018e+01 4.6700000000e+00 0.0000e+00 -1.0000e+00
       -6  2    3    3    0  503 +3.1581447669e+02 -3.2399882916e+01 -2.1113533537e+01 3.6243903886e+02 1.7357344121e+02 0.0000e+00 0.0000e+00
       -5  1    6    6    0  503 +2.5716254243e+02 -4.0976178285e+01 -3.3344633780e+01 2.6257435883e+02 4.6700000000e+00 0.0000e+00 1.0000e+00
      -24  2    6    6    0    0 +5.8651934263e+01 +8.5762953691e+00 +1.2231100243e+01 9.9864680031e+01 7.9433949099e+01 0.0000e+00 0.0000e+00
        1  1    8    8  504    0 +3.6256436421e+01 -2.2847230558e+00 -3.2455006002e+01 4.8714233868e+01 5.0400000000e-03 0.0000e+00 -1.0000e+00
       -2  1    8    8    0  504 +2.2395497842e+01 +1.0861018425e+01 +4.4686106245e+01 5.1150446163e+01 2.5500000000e-03 0.0000e+00 1.0000e+00
       23  2    3    3    0    0 -2.0298137108e+02 +6.8665698334e+01 +9.8923160441e+01 2.5408397645e+02 9.4108768366e+01 0.0000e+00 0.0000e+00
       15  1   11   11    0    0 -3.2992194339e+01 +2.7379478632e+01 -1.4843665369e+01 4.5404987257e+01 1.7770000000e+00 0.0000e+00 -1.0000e+00
      -15  1   11   11    0    0 -1.6998917674e+02 +4.1286219702e+01 +1.1376682581e+02 2.0867898919e+02 1.7770000000e+00 0.0000e+00 1.0000e+00
<mgrwt>
<rscale>  1 0.20556373e+03</rscale>
<asrwt>0</asrwt>
<pdfrwt beam="1">  1       21 0.58543728e-01 0.60548781e+03</pdfrwt>
<pdfrwt beam="2">  1       -4 0.10953368e+00 0.69789094e+02</pdfrwt>
<totfact> 0.68116387e+01</totfact>
</mgrwt>
<rwgt>
<wgt id='1001'> +3.9556008E-01 </wgt>
<wgt id='1002'> +3.5189458E-01 </wgt>
<wgt id='1003'> +3.5189313E-01 </wgt>
<wgt id='1004'> +3.9719061E-01 </wgt>
<wgt id='1005'> +3.2724565E-01 </wgt>
<wgt id='1006'> +3.6079077E-01 </wgt>
<wgt id='1007'> +3.2523324E-01 </wgt>
<wgt id='1008'> +3.2523197E-01 </wgt>
<wgt id='1009'> +3.6450957E-01 </wgt>
<wgt id='1010'> +3.0357263E-01 </wgt>
<wgt id='1011'> +4.3799162E-01 </wgt>
<wgt id='1012'> +3.8344468E-01 </wgt>
<wgt id='1013'> +3.8344301E-01 </wgt>
<wgt id='1014'> +4.3650512E-01 </wgt>
<wgt id='1015'> +3.5502379E-01 </wgt>
<wgt id='1016'> +3.8959389E-01 </wgt>
<wgt id='1017'> +3.3808170E-01 </wgt>
<wgt id='1018'> +3.3808036E-01 </wgt>
<wgt id='1019'> +3.8344301E-01 </wgt>
<wgt id='1020'> +3.1460536E-01 </wgt>
<wgt id='1021'> +3.5534900E-01 </wgt>
<wgt id='1022'> +3.1246689E-01 </wgt>
<wgt id='1023'> +3.1246572E-01 </wgt>
<wgt id='1024'> +3.5189313E-01 </wgt>
<wgt id='1025'> +2.9184675E-01 </wgt>
<wgt id='1026'> +4.3138544E-01 </wgt>
<wgt id='1027'> +3.6839337E-01 </wgt>
<wgt id='1028'> +3.6839182E-01 </wgt>
<wgt id='1029'> +4.2139676E-01 </wgt>
<wgt id='1030'> +3.4131055E-01 </wgt>
<wgt id='1031'> +3.9532357E-01 </wgt>
<wgt id='1032'> +3.6451098E-01 </wgt>
<wgt id='1033'> +3.6450957E-01 </wgt>
<wgt id='1034'> +4.0991189E-01 </wgt>
<wgt id='1035'> +3.4053386E-01 </wgt>
<wgt id='1036'> +3.6057505E-01 </wgt>
<wgt id='1037'> +3.3689376E-01 </wgt>
<wgt id='1038'> +3.3689253E-01 </wgt>
<wgt id='1039'> +3.7618413E-01 </wgt>
<wgt id='1040'> +3.1589957E-01 </wgt>
<wgt id='1041'> +4.3772974E-01 </wgt>
<wgt id='1042'> +3.9719225E-01 </wgt>
<wgt id='1043'> +3.9719061E-01 </wgt>
<wgt id='1044'> +4.5048557E-01 </wgt>
<wgt id='1045'> +3.6943997E-01 </wgt>
<wgt id='1046'> +3.9556008E-01 </wgt>
<wgt id='1047'> +3.9556008E-01 </wgt>
<wgt id='1048'> +3.9556008E-01 </wgt>
<wgt id='1049'> +3.9727688E-01 </wgt>
<wgt id='1050'> +3.9548596E-01 </wgt>
<wgt id='1051'> +3.9190862E-01 </wgt>
<wgt id='1052'> +3.9662161E-01 </wgt>
<wgt id='1053'> +3.8588893E-01 </wgt>
<wgt id='1054'> +4.0221106E-01 </wgt>
<wgt id='1055'> +4.0111143E-01 </wgt>
<wgt id='1056'> +4.0344105E-01 </wgt>
<wgt id='1057'> +3.9466921E-01 </wgt>
<wgt id='1058'> +4.0007343E-01 </wgt>
<wgt id='1059'> +4.0109482E-01 </wgt>
<wgt id='1060'> +3.9473844E-01 </wgt>
<wgt id='1061'> +3.9564902E-01 </wgt>
<wgt id='1062'> +3.9936408E-01 </wgt>
<wgt id='1063'> +3.8643444E-01 </wgt>
<wgt id='1064'> +4.0282628E-01 </wgt>
<wgt id='1065'> +4.0024167E-01 </wgt>
<wgt id='1066'> +3.9936127E-01 </wgt>
<wgt id='1067'> +3.8546533E-01 </wgt>
<wgt id='1068'> +3.9678903E-01 </wgt>
<wgt id='1069'> +3.9267515E-01 </wgt>
<wgt id='1070'> +3.8412301E-01 </wgt>
<wgt id='1071'> +3.9079939E-01 </wgt>
<wgt id='1072'> +3.9079257E-01 </wgt>
<wgt id='1073'> +4.0344033E-01 </wgt>
<wgt id='1074'> +3.9210818E-01 </wgt>
<wgt id='1075'> +3.8935228E-01 </wgt>
<wgt id='1076'> +3.9595260E-01 </wgt>
<wgt id='1077'> +3.7829662E-01 </wgt>
<wgt id='1078'> +3.9827169E-01 </wgt>
<wgt id='1079'> +3.7088614E-01 </wgt>
<wgt id='1080'> +3.9757707E-01 </wgt>
<wgt id='1081'> +3.9098565E-01 </wgt>
<wgt id='1082'> +3.8464538E-01 </wgt>
<wgt id='1083'> +3.9391580E-01 </wgt>
<wgt id='1084'> +4.0739379E-01 </wgt>
<wgt id='1085'> +3.9568694E-01 </wgt>
<wgt id='1086'> +3.9439467E-01 </wgt>
<wgt id='1087'> +3.9442750E-01 </wgt>
<wgt id='1088'> +3.8586852E-01 </wgt>
<wgt id='1089'> +3.8713144E-01 </wgt>
<wgt id='1090'> +3.8969638E-01 </wgt>
<wgt id='1091'> +3.9727956E-01 </wgt>
<wgt id='1092'> +4.0002029E-01 </wgt>
<wgt id='1093'> +3.9784504E-01 </wgt>
<wgt id='1094'> +4.0128847E-01 </wgt>
<wgt id='1095'> +4.0121600E-01 </wgt>
<wgt id='1096'> +3.9540746E-01 </wgt>
<wgt id='1097'> +3.9283430E-01 </wgt>
<wgt id='1098'> +4.0082131E-01 </wgt>
<wgt id='1099'> +3.9641451E-01 </wgt>
<wgt id='1100'> +3.9048402E-01 </wgt>
<wgt id='1101'> +3.9449211E-01 </wgt>
<wgt id='1102'> +3.9047332E-01 </wgt>
<wgt id='1103'> +3.9191907E-01 </wgt>
<wgt id='1104'> +3.9001409E-01 </wgt>
<wgt id='1105'> +3.9754308E-01 </wgt>
<wgt id='1106'> +3.9181081E-01 </wgt>
<wgt id='1107'> +3.8575141E-01 </wgt>
<wgt id='1108'> +3.9215878E-01 </wgt>
<wgt id='1109'> +3.8867695E-01 </wgt>
<wgt id='1110'> +3.9221611E-01 </wgt>
<wgt id='1111'> +4.0400831E-01 </wgt>
<wgt id='1112'> +4.0013083E-01 </wgt>
<wgt id='1113'> +3.9509147E-01 </wgt>
<wgt id='1114'> +3.8956541E-01 </wgt>
<wgt id='1115'> +3.9279227E-01 </wgt>
<wgt id='1116'> +3.9010659E-01 </wgt>
<wgt id='1117'> +3.9491045E-01 </wgt>
<wgt id='1118'> +3.9006101E-01 </wgt>
<wgt id='1119'> +3.9873821E-01 </wgt>
<wgt id='1120'> +3.9878880E-01 </wgt>
<wgt id='1121'> +3.9973504E-01 </wgt>
<wgt id='1122'> +3.9985453E-01 </wgt>
<wgt id='1123'> +3.9930870E-01 </wgt>
<wgt id='1124'> +3.9135906E-01 </wgt>
<wgt id='1125'> +3.8884866E-01 </wgt>
<wgt id='1126'> +3.8966267E-01 </wgt>
<wgt id='1127'> +3.9801452E-01 </wgt>
<wgt id='1128'> +3.9361668E-01 </wgt>
<wgt id='1129'> +3.9823302E-01 </wgt>
<wgt id='1130'> +3.9020163E-01 </wgt>
<wgt id='1131'> +3.9172839E-01 </wgt>
<wgt id='1132'> +3.9296206E-01 </wgt>
<wgt id='1133'> +3.9586078E-01 </wgt>
<wgt id='1134'> +3.9558894E-01 </wgt>
<wgt id='1135'> +3.8906123E-01 </wgt>
<wgt id='1136'> +3.9799268E-01 </wgt>
<wgt id='1137'> +3.9267337E-01 </wgt>
<wgt id='1138'> +3.9585395E-01 </wgt>
<wgt id='1139'> +3.9309581E-01 </wgt>
<wgt id='1140'> +3.9362256E-01 </wgt>
<wgt id='1141'> +3.9667225E-01 </wgt>
<wgt id='1142'> +3.9253593E-01 </wgt>
<wgt id='1143'> +3.9090588E-01 </wgt>
<wgt id='1144'> +4.0058488E-01 </wgt>
<wgt id='1145'> +3.9591835E-01 </wgt>
<wgt id='1146'> +3.9315191E-01 </wgt>
<wgt id='1147'> +3.9040010E-01 </wgt>
<wgt id='1148'> +3.9556008E-01 </wgt>
<wgt id='1149'> +4.0001278E-01 </wgt>
<wgt id='1150'> +3.8229378E-01 </wgt>
<wgt id='1151'> +3.7031375E-01 </wgt>
<wgt id='1152'> +4.7677503E-01 </wgt>
<wgt id='1153'> +4.3400652E-01 </wgt>
<wgt id='1154'> +4.2859381E-01 </wgt>
<wgt id='1155'> +4.5501116E-01 </wgt>
<wgt id='1156'> +3.6204364E-01 </wgt>
<wgt id='1157'> +3.9923166E-01 </wgt>
<wgt id='1158'> +3.7531216E-01 </wgt>
<wgt id='1159'> +4.8837212E-01 </wgt>
<wgt id='1160'> +4.5231671E-01 </wgt>
<wgt id='1161'> +3.9439111E-01 </wgt>
<wgt id='1162'> +4.3323815E-01 </wgt>
<wgt id='1163'> +3.8297356E-01 </wgt>
<wgt id='1164'> +3.6166917E-01 </wgt>
<wgt id='1165'> +4.3727947E-01 </wgt>
<wgt id='1166'> +3.7971153E-01 </wgt>
<wgt id='1167'> +4.0440824E-01 </wgt>
<wgt id='1168'> +3.3881864E-01 </wgt>
<wgt id='1169'> +4.0305232E-01 </wgt>
<wgt id='1170'> +3.3968723E-01 </wgt>
<wgt id='1171'> +2.9484689E-01 </wgt>
<wgt id='1172'> +3.4827166E-01 </wgt>
<wgt id='1173'> +4.1354677E-01 </wgt>
<wgt id='1174'> +3.5096018E-01 </wgt>
<wgt id='1175'> +3.6420195E-01 </wgt>
<wgt id='1176'> +4.4599872E-01 </wgt>
<wgt id='1177'> +4.0796672E-01 </wgt>
<wgt id='1178'> +4.3758144E-01 </wgt>
<wgt id='1179'> +4.1585554E-01 </wgt>
<wgt id='1180'> +4.0332697E-01 </wgt>
<wgt id='1181'> +4.6460682E-01 </wgt>
<wgt id='1182'> +3.4548943E-01 </wgt>
<wgt id='1183'> +4.2451216E-01 </wgt>
<wgt id='1184'> +4.8871475E-01 </wgt>
<wgt id='1185'> +3.8661656E-01 </wgt>
<wgt id='1186'> +3.4598903E-01 </wgt>
<wgt id='1187'> +4.4915965E-01 </wgt>
<wgt id='1188'> +3.3425569E-01 </wgt>
<wgt id='1189'> +4.1675756E-01 </wgt>
<wgt id='1190'> +3.3251817E-01 </wgt>
<wgt id='1191'> +4.0365359E-01 </wgt>
<wgt id='1192'> +3.7571858E-01 </wgt>
<wgt id='1193'> +3.7927767E-01 </wgt>
<wgt id='1194'> +4.1008739E-01 </wgt>
<wgt id='1195'> +3.7575097E-01 </wgt>
<wgt id='1196'> +4.4153337E-01 </wgt>
<wgt id='1197'> +3.9741984E-01 </wgt>
<wgt id='1198'> +3.3419105E-01 </wgt>
<wgt id='1199'> +4.2800321E-01 </wgt>
<wgt id='1200'> +3.7363047E-01 </wgt>
<wgt id='1201'> +3.8739373E-01 </wgt>
<wgt id='1202'> +3.9997805E-01 </wgt>
<wgt id='1203'> +3.1561923E-01 </wgt>
<wgt id='1204'> +3.7277187E-01 </wgt>
<wgt id='1205'> +3.6988704E-01 </wgt>
<wgt id='1206'> +2.8910547E-01 </wgt>
<wgt id='1207'> +2.6562353E-01 </wgt>
<wgt id='1208'> +3.4723292E-01 </wgt>
<wgt id='1209'> +2.8673887E-01 </wgt>
<wgt id='1210'> +4.0644297E-01 </wgt>
<wgt id='1211'> +3.7366722E-01 </wgt>
<wgt id='1212'> +4.3274503E-01 </wgt>
<wgt id='1213'> +4.2226300E-01 </wgt>
<wgt id='1214'> +3.7762573E-01 </wgt>
<wgt id='1215'> +3.5812805E-01 </wgt>
<wgt id='1216'> +3.9437173E-01 </wgt>
<wgt id='1217'> +3.3079064E-01 </wgt>
<wgt id='1218'> +4.2555616E-01 </wgt>
<wgt id='1219'> +4.3559472E-01 </wgt>
<wgt id='1220'> +3.0507617E-01 </wgt>
<wgt id='1221'> +3.7020346E-01 </wgt>
<wgt id='1222'> +5.1596795E-01 </wgt>
<wgt id='1223'> +5.0312906E-01 </wgt>
<wgt id='1224'> +4.0022402E-01 </wgt>
<wgt id='1225'> +3.4088634E-01 </wgt>
<wgt id='1226'> +4.9564955E-01 </wgt>
<wgt id='1227'> +3.2610943E-01 </wgt>
<wgt id='1228'> +4.4045573E-01 </wgt>
<wgt id='1229'> +4.7463440E-01 </wgt>
<wgt id='1230'> +4.4573599E-01 </wgt>
<wgt id='1231'> +4.3727947E-01 </wgt>
<wgt id='1232'> +5.6011384E-01 </wgt>
<wgt id='1233'> +4.2018284E-01 </wgt>
<wgt id='1234'> +4.0388315E-01 </wgt>
<wgt id='1235'> +4.2327456E-01 </wgt>
<wgt id='1236'> +3.9185371E-01 </wgt>
<wgt id='1237'> +4.8669938E-01 </wgt>
<wgt id='1238'> +5.8156040E-01 </wgt>
<wgt id='1239'> +4.1414588E-01 </wgt>
<wgt id='1240'> +3.9405134E-01 </wgt>
<wgt id='1241'> +4.4676609E-01 </wgt>
<wgt id='1242'> +3.9524169E-01 </wgt>
<wgt id='1243'> +4.3249672E-01 </wgt>
<wgt id='1244'> +4.2160570E-01 </wgt>
<wgt id='1245'> +3.4818326E-01 </wgt>
<wgt id='1246'> +4.0683767E-01 </wgt>
<wgt id='1247'> +3.6873803E-01 </wgt>
<wgt id='1248'> +3.9512802E-01 </wgt>
<wgt id='1249'> +3.8769376E-01 </wgt>
<wgt id='1250'> +4.1185336E-01 </wgt>
<wgt id='1251'> +4.1031097E-01 </wgt>
<wgt id='1252'> +4.9921331E-01 </wgt>
<wgt id='1253'> +4.3784440E-01 </wgt>
<wgt id='1254'> +4.4040624E-01 </wgt>
<wgt id='1255'> +5.2565573E-01 </wgt>
<wgt id='1256'> +5.2431792E-01 </wgt>
<wgt id='1257'> +5.2642526E-01 </wgt>
<wgt id='1258'> +5.2597456E-01 </wgt>
<wgt id='1259'> +5.2550611E-01 </wgt>
<wgt id='1260'> +5.2353721E-01 </wgt>
<wgt id='1261'> +5.2854522E-01 </wgt>
<wgt id='1262'> +5.2386571E-01 </wgt>
<wgt id='1263'> +5.2680452E-01 </wgt>
<wgt id='1264'> +5.2366539E-01 </wgt>
<wgt id='1265'> +5.2702271E-01 </wgt>
<wgt id='1266'> +5.2855558E-01 </wgt>
<wgt id='1267'> +5.2276246E-01 </wgt>
<wgt id='1268'> +5.2589073E-01 </wgt>
<wgt id='1269'> +5.2524732E-01 </wgt>
<wgt id='1270'> +5.1415407E-01 </wgt>
<wgt id='1271'> +5.3834927E-01 </wgt>
<wgt id='1272'> +5.2184510E-01 </wgt>
<wgt id='1273'> +5.2857282E-01 </wgt>
<wgt id='1274'> +5.2980239E-01 </wgt>
<wgt id='1275'> +5.2055387E-01 </wgt>
<wgt id='1276'> +5.3879619E-01 </wgt>
<wgt id='1277'> +5.1203231E-01 </wgt>
<wgt id='1278'> +5.1983888E-01 </wgt>
<wgt id='1279'> +5.3007836E-01 </wgt>
<wgt id='1280'> +5.2577816E-01 </wgt>
<wgt id='1281'> +5.2574099E-01 </wgt>
<wgt id='1282'> +5.3002888E-01 </wgt>
<wgt id='1283'> +5.2036835E-01 </wgt>
<wgt id='1284'> +5.2349100E-01 </wgt>
<wgt id='1285'> +5.2808718E-01 </wgt>
<wgt id='1286'> +5.2640003E-01 </wgt>
<wgt id='1287'> +5.2561910E-01 </wgt>
<wgt id='1288'> +5.3106112E-01 </wgt>
<wgt id='1289'> +5.2310860E-01 </wgt>
<wgt id='1290'> +5.2550137E-01 </wgt>
<wgt id='1291'> +5.2571192E-01 </wgt>
<wgt id='1292'> +5.3421535E-01 </wgt>
<wgt id='1293'> +5.1577637E-01 </wgt>
<wgt id='1294'> +5.1809822E-01 </wgt>
<wgt id='1295'> +5.2753098E-01 </wgt>
<wgt id='1296'> +4.5431076E-01 </wgt>
<wgt id='1297'> +4.5654460E-01 </wgt>
<wgt id='1298'> +4.5251483E-01 </wgt>
<wgt id='1299'> +4.5445018E-01 </wgt>
<wgt id='1300'> +4.5419203E-01 </wgt>
<wgt id='1301'> +4.5459057E-01 </wgt>
<wgt id='1302'> +4.5392808E-01 </wgt>
<wgt id='1303'> +4.5481524E-01 </wgt>
<wgt id='1304'> +4.5398442E-01 </wgt>
<wgt id='1305'> +4.5340847E-01 </wgt>
<wgt id='1306'> +4.5563217E-01 </wgt>
<wgt id='1307'> +4.4896182E-01 </wgt>
<wgt id='1308'> +4.5764519E-01 </wgt>
<wgt id='1309'> +4.5524871E-01 </wgt>
<wgt id='1310'> +4.5306113E-01 </wgt>
<wgt id='1311'> +4.5335357E-01 </wgt>
<wgt id='1312'> +4.5466798E-01 </wgt>
<wgt id='1313'> +4.4539127E-01 </wgt>
<wgt id='1314'> +4.6547647E-01 </wgt>
<wgt id='1315'> +4.5512725E-01 </wgt>
<wgt id='1316'> +4.5356864E-01 </wgt>
<wgt id='1317'> +4.6716919E-01 </wgt>
<wgt id='1318'> +4.3265116E-01 </wgt>
<wgt id='1319'> +4.4508071E-01 </wgt>
<wgt id='1320'> +4.6026251E-01 </wgt>
<wgt id='1321'> +4.4882548E-01 </wgt>
<wgt id='1322'> +4.5696637E-01 </wgt>
<wgt id='1323'> +4.5155669E-01 </wgt>
<wgt id='1324'> +4.5747779E-01 </wgt>
<wgt id='1325'> +4.4939256E-01 </wgt>
<wgt id='1326'> +4.6300843E-01 </wgt>
<wgt id='1327'> +4.5226738E-01 </wgt>
<wgt id='1328'> +4.5514247E-01 </wgt>
<wgt id='1329'> +4.5581793E-01 </wgt>
<wgt id='1330'> +4.5342058E-01 </wgt>
<wgt id='1331'> +4.5751189E-01 </wgt>
<wgt id='1332'> +4.5257569E-01 </wgt>
<wgt id='1333'> +4.6096916E-01 </wgt>
<wgt id='1334'> +4.5201390E-01 </wgt>
<wgt id='1335'> +4.5551957E-01 </wgt>
<wgt id='1336'> +4.5401424E-01 </wgt>
<wgt id='1337'> +4.5431076E-01 </wgt>
<wgt id='1338'> +4.5352659E-01 </wgt>
<wgt id='1339'> +4.5378144E-01 </wgt>
<wgt id='1340'> +4.5392111E-01 </wgt>
<wgt id='1341'> +4.5436475E-01 </wgt>
<wgt id='1342'> +4.5445965E-01 </wgt>
<wgt id='1343'> +4.5452616E-01 </wgt>
<wgt id='1344'> +4.5710677E-01 </wgt>
<wgt id='1345'> +4.5981775E-01 </wgt>
<wgt id='1346'> +4.5440317E-01 </wgt>
<wgt id='1347'> +4.5530478E-01 </wgt>
<wgt id='1348'> +4.5843548E-01 </wgt>
<wgt id='1349'> +4.5759614E-01 </wgt>
<wgt id='1350'> +4.5669369E-01 </wgt>
<wgt id='1351'> +4.5704755E-01 </wgt>
<wgt id='1352'> +4.5716667E-01 </wgt>
<wgt id='1353'> +4.5639188E-01 </wgt>
<wgt id='1354'> +4.5760878E-01 </wgt>
<wgt id='1355'> +4.5699250E-01 </wgt>
<wgt id='1356'> +4.5718179E-01 </wgt>
<wgt id='1357'> +4.5201244E-01 </wgt>
<wgt id='1358'> +4.6019071E-01 </wgt>
<wgt id='1359'> +4.5793260E-01 </wgt>
<wgt id='1360'> +4.5497821E-01 </wgt>
<wgt id='1361'> +4.3754545E-01 </wgt>
<wgt id='1362'> +4.7427735E-01 </wgt>
<wgt id='1363'> +4.5374325E-01 </wgt>
<wgt id='1364'> +4.6129526E-01 </wgt>
<wgt id='1365'> +4.5353792E-01 </wgt>
<wgt id='1366'> +4.5863903E-01 </wgt>
<wgt id='1367'> +4.5260992E-01 </wgt>
<wgt id='1368'> +4.5925844E-01 </wgt>
<wgt id='1369'> +4.6810888E-01 </wgt>
<wgt id='1370'> +4.4791426E-01 </wgt>
<wgt id='1371'> +4.5526926E-01 </wgt>
<wgt id='1372'> +4.6023928E-01 </wgt>
<wgt id='1373'> +4.6101349E-01 </wgt>
<wgt id='1374'> +4.5725171E-01 </wgt>
<wgt id='1375'> +4.5744025E-01 </wgt>
<wgt id='1376'> +4.5718914E-01 </wgt>
<wgt id='1377'> +4.5634557E-01 </wgt>
<wgt id='1378'> +4.5862608E-01 </wgt>
<wgt id='1379'> +4.5391011E-01 </wgt>
<wgt id='1380'> +4.6039315E-01 </wgt>
<wgt id='1381'> +4.5099449E-01 </wgt>
<wgt id='1382'> +4.6390786E-01 </wgt>
<wgt id='1383'> +4.5630152E-01 </wgt>
<wgt id='1384'> +4.6150980E-01 </wgt>
<wgt id='1385'> +4.5710677E-01 </wgt>
<wgt id='1386'> +4.5607814E-01 </wgt>
<wgt id='1387'> +4.5646926E-01 </wgt>
<wgt id='1388'> +4.5670140E-01 </wgt>
<wgt id='1389'> +4.5715375E-01 </wgt>
<wgt id='1390'> +4.5719810E-01 </wgt>
<wgt id='1391'> +4.5724603E-01 </wgt>
<wgt id='1392'> +4.6170865E-01 </wgt>
<wgt id='1393'> +4.6223574E-01 </wgt>
<wgt id='1394'> +4.6113038E-01 </wgt>
<wgt id='1395'> +4.6222406E-01 </wgt>
<wgt id='1396'> +4.6134602E-01 </wgt>
<wgt id='1397'> +4.6527984E-01 </wgt>
<wgt id='1398'> +4.5827046E-01 </wgt>
<wgt id='1399'> +4.5984612E-01 </wgt>
<wgt id='1400'> +4.6402174E-01 </wgt>
<wgt id='1401'> +4.6276001E-01 </wgt>
<wgt id='1402'> +4.6038706E-01 </wgt>
<wgt id='1403'> +4.6225759E-01 </wgt>
<wgt id='1404'> +4.6060600E-01 </wgt>
<wgt id='1405'> +4.6156638E-01 </wgt>
<wgt id='1406'> +4.6190663E-01 </wgt>
<wgt id='1407'> +4.6116901E-01 </wgt>
<wgt id='1408'> +4.6208604E-01 </wgt>
<wgt id='1409'> +4.5919813E-01 </wgt>
<wgt id='1410'> +4.6454626E-01 </wgt>
<wgt id='1411'> +4.6080635E-01 </wgt>
<wgt id='1412'> +4.6240276E-01 </wgt>
<wgt id='1413'> +4.6004005E-01 </wgt>
<wgt id='1414'> +4.6347971E-01 </wgt>
<wgt id='1415'> +4.5823471E-01 </wgt>
<wgt id='1416'> +4.6514761E-01 </wgt>
<wgt id='1417'> +4.5824603E-01 </wgt>
<wgt id='1418'> +4.6601319E-01 </wgt>
<wgt id='1419'> +4.6171085E-01 </wgt>
<wgt id='1420'> +4.6161362E-01 </wgt>
<wgt id='1421'> +4.5331319E-01 </wgt>
<wgt id='1422'> +4.7170918E-01 </wgt>
<wgt id='1423'> +4.4392303E-01 </wgt>
<wgt id='1424'> +4.7555839E-01 </wgt>
<wgt id='1425'> +4.6346361E-01 </wgt>
<wgt id='1426'> +4.5938837E-01 </wgt>
<wgt id='1427'> +4.6420131E-01 </wgt>
<wgt id='1428'> +4.5621905E-01 </wgt>
<wgt id='1429'> +4.6181569E-01 </wgt>
<wgt id='1430'> +4.6170783E-01 </wgt>
<wgt id='1431'> +4.5865503E-01 </wgt>
<wgt id='1432'> +4.6471267E-01 </wgt>
<wgt id='1433'> +4.5423620E-01 </wgt>
<wgt id='1434'> +4.7079248E-01 </wgt>
<wgt id='1435'> +4.6597936E-01 </wgt>
<wgt id='1436'> +4.6053553E-01 </wgt>
<wgt id='1437'> +4.6088799E-01 </wgt>
<wgt id='1438'> +4.6387865E-01 </wgt>
<wgt id='1439'> +4.6705931E-01 </wgt>
<wgt id='1440'> +4.5760655E-01 </wgt>
<wgt id='1441'> +4.6261774E-01 </wgt>
<wgt id='1442'> +4.6136718E-01 </wgt>
<wgt id='1443'> +4.4506940E-01 </wgt>
<wgt id='1444'> +4.4561955E-01 </wgt>
<wgt id='1445'> +4.4447520E-01 </wgt>
<wgt id='1446'> +4.4561595E-01 </wgt>
<wgt id='1447'> +4.4472935E-01 </wgt>
<wgt id='1448'> +4.4859824E-01 </wgt>
<wgt id='1449'> +4.4181601E-01 </wgt>
<wgt id='1450'> +4.4306725E-01 </wgt>
<wgt id='1451'> +4.4735763E-01 </wgt>
<wgt id='1452'> +4.4596802E-01 </wgt>
<wgt id='1453'> +4.4418419E-01 </wgt>
<wgt id='1454'> +4.4563825E-01 </wgt>
<wgt id='1455'> +4.4384620E-01 </wgt>
<wgt id='1456'> +4.4484681E-01 </wgt>
<wgt id='1457'> +4.4549947E-01 </wgt>
<wgt id='1458'> +4.4444190E-01 </wgt>
<wgt id='1459'> +4.4543458E-01 </wgt>
<wgt id='1460'> +4.4225038E-01 </wgt>
<wgt id='1461'> +4.4839186E-01 </wgt>
<wgt id='1462'> +4.4486939E-01 </wgt>
<wgt id='1463'> +4.4524137E-01 </wgt>
<wgt id='1464'> +4.4361720E-01 </wgt>
<wgt id='1465'> +4.4701585E-01 </wgt>
<wgt id='1466'> +4.4087778E-01 </wgt>
<wgt id='1467'> +4.4788493E-01 </wgt>
<wgt id='1468'> +4.5329549E-01 </wgt>
<wgt id='1469'> +4.3707857E-01 </wgt>
<wgt id='1470'> +4.4523621E-01 </wgt>
<wgt id='1471'> +4.4497629E-01 </wgt>
<wgt id='1472'> +4.3877355E-01 </wgt>
<wgt id='1473'> +4.5275072E-01 </wgt>
<wgt id='1474'> +4.3280410E-01 </wgt>
<wgt id='1475'> +4.5927002E-01 </wgt>
<wgt id='1476'> +4.4993526E-01 </wgt>
<wgt id='1477'> +4.4040111E-01 </wgt>
<wgt id='1478'> +4.4741217E-01 </wgt>
<wgt id='1479'> +4.3942442E-01 </wgt>
<wgt id='1480'> +4.4556819E-01 </wgt>
<wgt id='1481'> +4.4475419E-01 </wgt>
<wgt id='1482'> +4.4229495E-01 </wgt>
<wgt id='1483'> +4.4824374E-01 </wgt>
<wgt id='1484'> +4.3792199E-01 </wgt>
<wgt id='1485'> +4.5333644E-01 </wgt>
<wgt id='1486'> +4.4973546E-01 </wgt>
<wgt id='1487'> +4.4342070E-01 </wgt>
<wgt id='1488'> +4.4395171E-01 </wgt>
<wgt id='1489'> +4.4793722E-01 </wgt>
<wgt id='1490'> +4.5075661E-01 </wgt>
<wgt id='1491'> +4.4175505E-01 </wgt>
<wgt id='1492'> +4.4661782E-01 </wgt>
<wgt id='1493'> +4.4459877E-01 </wgt>
<wgt id='1494'> +4.3920677E-01 </wgt>
<wgt id='1495'> +4.1634175E-01 </wgt>
<wgt id='1496'> +4.2374939E-01 </wgt>
<wgt id='1497'> +4.3131348E-01 </wgt>
<wgt id='1498'> +4.4813002E-01 </wgt>
<wgt id='1499'> +4.3934118E-01 </wgt>
<wgt id='1500'> +4.8924766E-01 </wgt>
<wgt id='1501'> +4.7832281E-01 </wgt>
<wgt id='1502'> +4.6809305E-01 </wgt>
<wgt id='1503'> +4.5824421E-01 </wgt>
<wgt id='1504'> +4.4861716E-01 </wgt>
<wgt id='1505'> +4.3059109E-01 </wgt>
<wgt id='1506'> +4.2211808E-01 </wgt>
<wgt id='1507'> +4.1394928E-01 </wgt>
<wgt id='1508'> +4.3934118E-01 </wgt>
<wgt id='1509'> +4.3847896E-01 </wgt>
<wgt id='1510'> +4.3888185E-01 </wgt>
<wgt id='1511'> +4.3990374E-01 </wgt>
<wgt id='1512'> +4.4046983E-01 </wgt>
<wgt id='1513'> +4.5739090E-01 </wgt>
<wgt id='1514'> +4.5741640E-01 </wgt>
<wgt id='1515'> +4.5741522E-01 </wgt>
<wgt id='1516'> +4.5946586E-01 </wgt>
<wgt id='1517'> +4.5534388E-01 </wgt>
<wgt id='1518'> +4.5905457E-01 </wgt>
<wgt id='1519'> +4.5674661E-01 </wgt>
<wgt id='1520'> +4.5723237E-01 </wgt>
<wgt id='1521'> +4.5757140E-01 </wgt>
<wgt id='1522'> +4.5803727E-01 </wgt>
<wgt id='1523'> +4.5678205E-01 </wgt>
<wgt id='1524'> +4.5552400E-01 </wgt>
<wgt id='1525'> +4.5821691E-01 </wgt>
<wgt id='1526'> +4.5721711E-01 </wgt>
<wgt id='1527'> +4.5761680E-01 </wgt>
<wgt id='1528'> +4.5721632E-01 </wgt>
<wgt id='1529'> +4.5759968E-01 </wgt>
<wgt id='1530'> +4.5602428E-01 </wgt>
<wgt id='1531'> +4.5817763E-01 </wgt>
<wgt id='1532'> +4.5762979E-01 </wgt>
<wgt id='1533'> +4.5709844E-01 </wgt>
<wgt id='1534'> +4.5656534E-01 </wgt>
<wgt id='1535'> +4.5798921E-01 </wgt>
<wgt id='1536'> +4.6094930E-01 </wgt>
<wgt id='1537'> +4.5404048E-01 </wgt>
<wgt id='1538'> +4.5858038E-01 </wgt>
<wgt id='1539'> +4.5440006E-01 </wgt>
<wgt id='1540'> +4.5680545E-01 </wgt>
<wgt id='1541'> +4.5743367E-01 </wgt>
<wgt id='1542'> +4.6296270E-01 </wgt>
<wgt id='1543'> +4.4345639E-01 </wgt>
<wgt id='1544'> +4.5201182E-01 </wgt>
<wgt id='1545'> +4.6878583E-01 </wgt>
<wgt id='1546'> +4.5960114E-01 </wgt>
<wgt id='1547'> +4.5321317E-01 </wgt>
<wgt id='1548'> +4.4912960E-01 </wgt>
<wgt id='1549'> +4.6118185E-01 </wgt>
<wgt id='1550'> +4.5702771E-01 </wgt>
<wgt id='1551'> +4.5783802E-01 </wgt>
<wgt id='1552'> +4.5332264E-01 </wgt>
<wgt id='1553'> +4.6053723E-01 </wgt>
<wgt id='1554'> +4.6122992E-01 </wgt>
<wgt id='1555'> +4.5201704E-01 </wgt>
<wgt id='1556'> +4.5814298E-01 </wgt>
<wgt id='1557'> +4.5316356E-01 </wgt>
<wgt id='1558'> +4.5011234E-01 </wgt>
<wgt id='1559'> +4.6379789E-01 </wgt>
<wgt id='1560'> +4.6154934E-01 </wgt>
<wgt id='1561'> +4.5572277E-01 </wgt>
<wgt id='1562'> +4.5510565E-01 </wgt>
<wgt id='1563'> +4.5981893E-01 </wgt>
<wgt id='1564'> +4.5739090E-01 </wgt>
<wgt id='1565'> +4.4658995E-01 </wgt>
<wgt id='1566'> +4.6821406E-01 </wgt>
<wgt id='1567'> +4.5718847E-01 </wgt>
<wgt id='1568'> +5.1520217E-01 </wgt>
<wgt id='1569'> +5.0217946E-01 </wgt>
<wgt id='1570'> +4.8983670E-01 </wgt>
<wgt id='1571'> +4.7849832E-01 </wgt>
<wgt id='1572'> +4.6760469E-01 </wgt>
<wgt id='1573'> +4.4683410E-01 </wgt>
<wgt id='1574'> +4.3686162E-01 </wgt>
<wgt id='1575'> +4.2781020E-01 </wgt>
<wgt id='1576'> +4.5718847E-01 </wgt>
<wgt id='1577'> +4.5556777E-01 </wgt>
<wgt id='1578'> +4.5638277E-01 </wgt>
<wgt id='1579'> +4.5802673E-01 </wgt>
<wgt id='1580'> +4.5886559E-01 </wgt>
<wgt id='1581'> +4.3775521E-01 </wgt>
<wgt id='1582'> +4.3910385E-01 </wgt>
<wgt id='1583'> +4.4201849E-01 </wgt>
<wgt id='1584'> +4.3417221E-01 </wgt>
<wgt id='1585'> +4.4044216E-01 </wgt>
<wgt id='1586'> +4.2792691E-01 </wgt>
<wgt id='1587'> +4.4194811E-01 </wgt>
<wgt id='1588'> +4.4462894E-01 </wgt>
<wgt id='1589'> +4.3740250E-01 </wgt>
<wgt id='1590'> +4.4563148E-01 </wgt>
<wgt id='1591'> +4.3638116E-01 </wgt>
<wgt id='1592'> +4.2382788E-01 </wgt>
<wgt id='1593'> +4.4046324E-01 </wgt>
<wgt id='1594'> +4.2871874E-01 </wgt>
<wgt id='1595'> +4.3581938E-01 </wgt>
<wgt id='1596'> +4.4330521E-01 </wgt>
<wgt id='1597'> +4.4069756E-01 </wgt>
<wgt id='1598'> +4.4535982E-01 </wgt>
<wgt id='1599'> +4.3430953E-01 </wgt>
<wgt id='1600'> +4.3963358E-01 </wgt>
<wgt id='1601'> +4.3432018E-01 </wgt>
<wgt id='1602'> +4.3893878E-01 </wgt>
<wgt id='1603'> +4.3882114E-01 </wgt>
<wgt id='1604'> +4.3469709E-01 </wgt>
<wgt id='1605'> +4.3675491E-01 </wgt>
<wgt id='1606'> +4.3803299E-01 </wgt>
<wgt id='1607'> +4.3913541E-01 </wgt>
<wgt id='1608'> +4.3518039E-01 </wgt>
<wgt id='1609'> +4.3779416E-01 </wgt>
<wgt id='1610'> +4.3812004E-01 </wgt>
<wgt id='1611'> +4.4069696E-01 </wgt>
<wgt id='1612'> +3.8476722E-01 </wgt>
<wgt id='1613'> +3.8288061E-01 </wgt>
<wgt id='1614'> +3.8032817E-01 </wgt>
<wgt id='1615'> +3.8188298E-01 </wgt>
<wgt id='1616'> +3.9019496E-01 </wgt>
<wgt id='1617'> +3.8542244E-01 </wgt>
<wgt id='1618'> +3.7967776E-01 </wgt>
<wgt id='1619'> +3.9150606E-01 </wgt>
<wgt id='1620'> +3.8382265E-01 </wgt>
<wgt id='1621'> +3.8150330E-01 </wgt>
<wgt id='1622'> +3.8448000E-01 </wgt>
<wgt id='1623'> +3.8636618E-01 </wgt>
<wgt id='1624'> +3.8461820E-01 </wgt>
<wgt id='1625'> +3.8035671E-01 </wgt>
<wgt id='1626'> +3.7557822E-01 </wgt>
<wgt id='1627'> +3.8242887E-01 </wgt>
<wgt id='1628'> +3.8140664E-01 </wgt>
<wgt id='1629'> +3.8552521E-01 </wgt>
<wgt id='1630'> +3.8506329E-01 </wgt>
<wgt id='1631'> +3.8598100E-01 </wgt>
<wgt id='1632'> +3.8435782E-01 </wgt>
<wgt id='1633'> +3.8289216E-01 </wgt>
<wgt id='1634'> +3.7804563E-01 </wgt>
<wgt id='1635'> +3.9662671E-01 </wgt>
<wgt id='1636'> +3.7669346E-01 </wgt>
<wgt id='1637'> +3.8462482E-01 </wgt>
<wgt id='1638'> +3.9585194E-01 </wgt>
<wgt id='1639'> +3.7500355E-01 </wgt>
<wgt id='1640'> +3.7604116E-01 </wgt>
<wgt id='1641'> +4.1680023E-01 </wgt>
<wgt id='1642'> +3.8667798E-01 </wgt>
<wgt id='1643'> +3.8549408E-01 </wgt>
<wgt id='1644'> +3.8941424E-01 </wgt>
<wgt id='1645'> +3.8704885E-01 </wgt>
<wgt id='1646'> +3.8829910E-01 </wgt>
<wgt id='1647'> +3.7633954E-01 </wgt>
<wgt id='1648'> +3.8656980E-01 </wgt>
<wgt id='1649'> +3.8810708E-01 </wgt>
<wgt id='1650'> +3.8549257E-01 </wgt>
<wgt id='1651'> +3.8480933E-01 </wgt>
<wgt id='1652'> +3.8610763E-01 </wgt>
<wgt id='1653'> +3.8449383E-01 </wgt>
<wgt id='1654'> +3.7889037E-01 </wgt>
<wgt id='1655'> +3.8427787E-01 </wgt>
<wgt id='1656'> +3.8236097E-01 </wgt>
<wgt id='1657'> +3.8572549E-01 </wgt>
<wgt id='1658'> +3.7985070E-01 </wgt>
<wgt id='1659'> +3.7874216E-01 </wgt>
<wgt id='1660'> +3.8327099E-01 </wgt>
<wgt id='1661'> +3.8613439E-01 </wgt>
<wgt id='1662'> +3.8427358E-01 </wgt>
<wgt id='1663'> +3.8559508E-01 </wgt>
<wgt id='1664'> +3.8906851E-01 </wgt>
<wgt id='1665'> +3.8557278E-01 </wgt>
<wgt id='1666'> +3.8380688E-01 </wgt>
<wgt id='1667'> +3.8977335E-01 </wgt>
<wgt id='1668'> +3.8398922E-01 </wgt>
<wgt id='1669'> +3.8493206E-01 </wgt>
<wgt id='1670'> +3.7700627E-01 </wgt>
<wgt id='1671'> +3.8444337E-01 </wgt>
<wgt id='1672'> +3.7754813E-01 </wgt>
<wgt id='1673'> +3.8542753E-01 </wgt>
<wgt id='1674'> +3.8207863E-01 </wgt>
<wgt id='1675'> +3.8466763E-01 </wgt>
<wgt id='1676'> +3.9212833E-01 </wgt>
<wgt id='1677'> +3.7600765E-01 </wgt>
<wgt id='1678'> +3.8576446E-01 </wgt>
<wgt id='1679'> +3.8377398E-01 </wgt>
<wgt id='1680'> +3.8029308E-01 </wgt>
<wgt id='1681'> +3.7941830E-01 </wgt>
<wgt id='1682'> +3.9126307E-01 </wgt>
<wgt id='1683'> +3.9274182E-01 </wgt>
<wgt id='1684'> +3.8100704E-01 </wgt>
<wgt id='1685'> +3.7974779E-01 </wgt>
<wgt id='1686'> +3.8881541E-01 </wgt>
<wgt id='1687'> +3.8538915E-01 </wgt>
<wgt id='1688'> +3.8124414E-01 </wgt>
<wgt id='1689'> +3.8859975E-01 </wgt>
<wgt id='1690'> +3.8516223E-01 </wgt>
<wgt id='1691'> +3.8488806E-01 </wgt>
<wgt id='1692'> +3.7992460E-01 </wgt>
<wgt id='1693'> +3.8510564E-01 </wgt>
<wgt id='1694'> +3.8223730E-01 </wgt>
<wgt id='1695'> +3.8768269E-01 </wgt>
<wgt id='1696'> +3.8315238E-01 </wgt>
<wgt id='1697'> +3.8530879E-01 </wgt>
<wgt id='1698'> +3.8700671E-01 </wgt>
<wgt id='1699'> +3.9106388E-01 </wgt>
<wgt id='1700'> +3.8213959E-01 </wgt>
<wgt id='1701'> +3.8638855E-01 </wgt>
<wgt id='1702'> +3.8414491E-01 </wgt>
<wgt id='1703'> +3.8743821E-01 </wgt>
<wgt id='1704'> +3.8008056E-01 </wgt>
<wgt id='1705'> +3.8978823E-01 </wgt>
<wgt id='1706'> +3.8078822E-01 </wgt>
<wgt id='1707'> +3.8264240E-01 </wgt>
<wgt id='1708'> +3.8618415E-01 </wgt>
<wgt id='1709'> +3.7427338E-01 </wgt>
<wgt id='1710'> +3.9331773E-01 </wgt>
<wgt id='1711'> +3.8469787E-01 </wgt>
<wgt id='1712'> +3.8048725E-01 </wgt>
<wgt id='1713'> +3.5292136E-01 </wgt>
<wgt id='1714'> +4.2852692E-01 </wgt>
<wgt id='1715'> +3.4468724E-01 </wgt>
<wgt id='1716'> +3.1894740E-01 </wgt>
<wgt id='1717'> +3.8030240E-01 </wgt>
<wgt id='1718'> +4.1867315E-01 </wgt>
<wgt id='1719'> +4.1567539E-01 </wgt>
<wgt id='1720'> +2.9092422E-01 </wgt>
<wgt id='1721'> +4.0911094E-01 </wgt>
<wgt id='1722'> +3.3240261E-01 </wgt>
<wgt id='1723'> +3.2516622E-01 </wgt>
<wgt id='1724'> +3.3177920E-01 </wgt>
<wgt id='1725'> +2.9923907E-01 </wgt>
<wgt id='1726'> +3.4841326E-01 </wgt>
<wgt id='1727'> +3.0526848E-01 </wgt>
<wgt id='1728'> +3.2863063E-01 </wgt>
<wgt id='1729'> +3.6638319E-01 </wgt>
<wgt id='1730'> +3.4265588E-01 </wgt>
<wgt id='1731'> +5.3922218E-01 </wgt>
<wgt id='1732'> +3.0491518E-01 </wgt>
<wgt id='1733'> +3.3930935E-01 </wgt>
<wgt id='1734'> +4.3046069E-01 </wgt>
<wgt id='1735'> +4.7782819E-01 </wgt>
<wgt id='1736'> +4.5731242E-01 </wgt>
<wgt id='1737'> +3.2763598E-01 </wgt>
<wgt id='1738'> +2.6106444E-01 </wgt>
<wgt id='1739'> +3.3933119E-01 </wgt>
<wgt id='1740'> +3.3795433E-01 </wgt>
<wgt id='1741'> +3.0251735E-01 </wgt>
<wgt id='1742'> +3.4963963E-01 </wgt>
<wgt id='1743'> +3.7595786E-01 </wgt>
<wgt id='1744'> +3.2780393E-01 </wgt>
<wgt id='1745'> +4.3704047E-01 </wgt>
<wgt id='1746'> +3.9041627E-01 </wgt>
<wgt id='1747'> +3.0620007E-01 </wgt>
<wgt id='1748'> +4.1216717E-01 </wgt>
<wgt id='1749'> +2.6664959E-01 </wgt>
<wgt id='1750'> +2.4958144E-01 </wgt>
<wgt id='1751'> +3.6843396E-01 </wgt>
<wgt id='1752'> +3.8308185E-01 </wgt>
<wgt id='1753'> +4.4537404E-01 </wgt>
<wgt id='1754'> +4.6297170E-01 </wgt>
<wgt id='1755'> +4.2428254E-01 </wgt>
<wgt id='1756'> +3.1785605E-01 </wgt>
<wgt id='1757'> +3.5160979E-01 </wgt>
<wgt id='1758'> +3.5939640E-01 </wgt>
<wgt id='1759'> +3.7306396E-01 </wgt>
<wgt id='1760'> +3.5578915E-01 </wgt>
<wgt id='1761'> +3.8489797E-01 </wgt>
<wgt id='1762'> +3.0526848E-01 </wgt>
<wgt id='1763'> +3.4862587E-01 </wgt>
<wgt id='1764'> +2.3435562E-01 </wgt>
<wgt id='1765'> +2.2352621E-01 </wgt>
<wgt id='1766'> +2.7174171E-01 </wgt>
<wgt id='1767'> +3.3122863E-01 </wgt>
<wgt id='1768'> +3.6960429E-01 </wgt>
<wgt id='1769'> +3.8443642E-01 </wgt>
<wgt id='1770'> +2.8741291E-01 </wgt>
<wgt id='1771'> +3.6951672E-01 </wgt>
<wgt id='1772'> +3.3228472E-01 </wgt>
<wgt id='1773'> +3.8057675E-01 </wgt>
<wgt id='1774'> +3.9290299E-01 </wgt>
<wgt id='1775'> +2.9807107E-01 </wgt>
<wgt id='1776'> +3.6088409E-01 </wgt>
<wgt id='1777'> +2.4974760E-01 </wgt>
<wgt id='1778'> +3.6280610E-01 </wgt>
<wgt id='1779'> +3.4340748E-01 </wgt>
<wgt id='1780'> +3.2564942E-01 </wgt>
<wgt id='1781'> +3.5398920E-01 </wgt>
<wgt id='1782'> +2.9520839E-01 </wgt>
<wgt id='1783'> +2.8759624E-01 </wgt>
<wgt id='1784'> +2.6442324E-01 </wgt>
<wgt id='1785'> +3.0292533E-01 </wgt>
<wgt id='1786'> +2.4701050E-01 </wgt>
<wgt id='1787'> +2.6906927E-01 </wgt>
<wgt id='1788'> +3.3231978E-01 </wgt>
<wgt id='1789'> +2.7523637E-01 </wgt>
<wgt id='1790'> +3.2245810E-01 </wgt>
<wgt id='1791'> +4.8853126E-01 </wgt>
<wgt id='1792'> +2.6935188E-01 </wgt>
<wgt id='1793'> +2.5898823E-01 </wgt>
<wgt id='1794'> +3.0042643E-01 </wgt>
<wgt id='1795'> +3.9732363E-01 </wgt>
<wgt id='1796'> +3.2225876E-01 </wgt>
<wgt id='1797'> +4.2040932E-01 </wgt>
<wgt id='1798'> +3.2093424E-01 </wgt>
<wgt id='1799'> +3.6701820E-01 </wgt>
<wgt id='1800'> +3.0555108E-01 </wgt>
<wgt id='1801'> +3.4867351E-01 </wgt>
<wgt id='1802'> +3.4781765E-01 </wgt>
<wgt id='1803'> +3.7853454E-01 </wgt>
<wgt id='1804'> +2.6862696E-01 </wgt>
<wgt id='1805'> +3.5065324E-01 </wgt>
<wgt id='1806'> +3.6825809E-01 </wgt>
<wgt id='1807'> +3.9952928E-01 </wgt>
<wgt id='1808'> +5.0990836E-01 </wgt>
<wgt id='1809'> +3.2087785E-01 </wgt>
<wgt id='1810'> +4.0077320E-01 </wgt>
<wgt id='1811'> +3.0009296E-01 </wgt>
<wgt id='1812'> +3.2711150E-01 </wgt>
<wgt id='1813'> +3.2285360E-01 </wgt>
<wgt id='1814'> +3.3610011E-01 </wgt>
<wgt id='1815'> +2.6713399E-01 </wgt>
<wgt id='1816'> +4.5458016E-01 </wgt>
<wgt id='1817'> +4.7201876E-01 </wgt>
<wgt id='1818'> +4.7206891E-01 </wgt>
<wgt id='1819'> +4.6864512E-01 </wgt>
<wgt id='1820'> +4.2384488E-01 </wgt>
<wgt id='1821'> +4.7063468E-01 </wgt>
<wgt id='1822'> +4.5213287E-01 </wgt>
<wgt id='1823'> +4.5621226E-01 </wgt>
<wgt id='1824'> +4.6526030E-01 </wgt>
<wgt id='1825'> +4.5030072E-01 </wgt>
<wgt id='1826'> +4.6838471E-01 </wgt>
<wgt id='1827'> +4.3631211E-01 </wgt>
<wgt id='1828'> +4.5038644E-01 </wgt>
<wgt id='1829'> +4.4554351E-01 </wgt>
<wgt id='1830'> +4.7153012E-01 </wgt>
<wgt id='1831'> +4.6744828E-01 </wgt>
<wgt id='1832'> +4.7040989E-01 </wgt>
<wgt id='1833'> +4.8316969E-01 </wgt>
<wgt id='1834'> +4.7874625E-01 </wgt>
<wgt id='1835'> +4.4785357E-01 </wgt>
<wgt id='1836'> +4.7521548E-01 </wgt>
<wgt id='1837'> +4.3508848E-01 </wgt>
<wgt id='1838'> +4.5270358E-01 </wgt>
<wgt id='1839'> +4.4780924E-01 </wgt>
<wgt id='1840'> +4.4185637E-01 </wgt>
<wgt id='1841'> +4.4899574E-01 </wgt>
<wgt id='1842'> +4.4089353E-01 </wgt>
<wgt id='1843'> +4.8011116E-01 </wgt>
<wgt id='1844'> +4.6194800E-01 </wgt>
<wgt id='1845'> +4.8026262E-01 </wgt>
<wgt id='1846'> +4.5723773E-01 </wgt>
<wgt id='1847'> +4.4047331E-01 </wgt>
<wgt id='1848'> +4.3660915E-01 </wgt>
<wgt id='1849'> +4.4089296E-01 </wgt>
<wgt id='1850'> +4.3154216E-01 </wgt>
<wgt id='1851'> +4.5477362E-01 </wgt>
<wgt id='1852'> +4.5016288E-01 </wgt>
<wgt id='1853'> +4.6767471E-01 </wgt>
<wgt id='1854'> +4.6151205E-01 </wgt>
<wgt id='1855'> +4.5014889E-01 </wgt>
<wgt id='1856'> +4.4165070E-01 </wgt>
<wgt id='1857'> +4.4782893E-01 </wgt>
<wgt id='1858'> +4.3877782E-01 </wgt>
<wgt id='1859'> +4.3257828E-01 </wgt>
<wgt id='1860'> +4.5718669E-01 </wgt>
<wgt id='1861'> +4.6480803E-01 </wgt>
<wgt id='1862'> +4.4989756E-01 </wgt>
<wgt id='1863'> +4.6159789E-01 </wgt>
<wgt id='1864'> +4.6079082E-01 </wgt>
<wgt id='1865'> +4.7232235E-01 </wgt>
<wgt id='1866'> +4.5466842E-01 </wgt>
<wgt id='1867'> +4.4818369E-01 </wgt>
<wgt id='1868'> +4.5850069E-01 </wgt>
<wgt id='1869'> +4.5051744E-01 </wgt>
<wgt id='1870'> +4.3613128E-01 </wgt>
<wgt id='1871'> +4.4439128E-01 </wgt>
<wgt id='1872'> +4.7797165E-01 </wgt>
<wgt id='1873'> +4.4857013E-01 </wgt>
<wgt id='1874'> +4.5483855E-01 </wgt>
<wgt id='1875'> +4.7355970E-01 </wgt>
<wgt id='1876'> +4.5442140E-01 </wgt>
<wgt id='1877'> +4.5805963E-01 </wgt>
<wgt id='1878'> +4.7062734E-01 </wgt>
<wgt id='1879'> +4.2501990E-01 </wgt>
<wgt id='1880'> +4.8368887E-01 </wgt>
<wgt id='1881'> +4.0827244E-01 </wgt>
<wgt id='1882'> +4.5293194E-01 </wgt>
<wgt id='1883'> +4.7361169E-01 </wgt>
<wgt id='1884'> +4.4350527E-01 </wgt>
<wgt id='1885'> +4.3763728E-01 </wgt>
<wgt id='1886'> +4.4497493E-01 </wgt>
<wgt id='1887'> +4.4125679E-01 </wgt>
<wgt id='1888'> +4.5035443E-01 </wgt>
<wgt id='1889'> +4.6066009E-01 </wgt>
<wgt id='1890'> +4.4696092E-01 </wgt>
<wgt id='1891'> +4.6484671E-01 </wgt>
<wgt id='1892'> +4.3239951E-01 </wgt>
<wgt id='1893'> +4.3335073E-01 </wgt>
<wgt id='1894'> +4.3572524E-01 </wgt>
<wgt id='1895'> +4.5649065E-01 </wgt>
<wgt id='1896'> +4.4701770E-01 </wgt>
<wgt id='1897'> +4.3971315E-01 </wgt>
<wgt id='1898'> +4.4767209E-01 </wgt>
<wgt id='1899'> +4.6552830E-01 </wgt>
<wgt id='1900'> +4.6269123E-01 </wgt>
<wgt id='1901'> +4.7303903E-01 </wgt>
<wgt id='1902'> +4.5950857E-01 </wgt>
<wgt id='1903'> +4.6455013E-01 </wgt>
<wgt id='1904'> +4.5748861E-01 </wgt>
<wgt id='1905'> +4.5701015E-01 </wgt>
<wgt id='1906'> +4.4718935E-01 </wgt>
<wgt id='1907'> +4.5209091E-01 </wgt>
<wgt id='1908'> +4.4294478E-01 </wgt>
<wgt id='1909'> +4.7245646E-01 </wgt>
<wgt id='1910'> +4.6375843E-01 </wgt>
<wgt id='1911'> +4.9011176E-01 </wgt>
<wgt id='1912'> +4.3369668E-01 </wgt>
<wgt id='1913'> +4.5683141E-01 </wgt>
<wgt id='1914'> +4.3499843E-01 </wgt>
<wgt id='1915'> +4.5536868E-01 </wgt>
<wgt id='1916'> +4.8415985E-01 </wgt>
<wgt id='1917'> +4.5245723E-01 </wgt>
<wgt id='1918'> +4.5744139E-01 </wgt>
<wgt id='1919'> +4.5458016E-01 </wgt>
<wgt id='1920'> +4.7201876E-01 </wgt>
<wgt id='1921'> +4.7206891E-01 </wgt>
<wgt id='1922'> +4.6864512E-01 </wgt>
<wgt id='1923'> +4.2384488E-01 </wgt>
<wgt id='1924'> +4.7063468E-01 </wgt>
<wgt id='1925'> +4.5213287E-01 </wgt>
<wgt id='1926'> +4.5621226E-01 </wgt>
<wgt id='1927'> +4.6526030E-01 </wgt>
<wgt id='1928'> +4.5030072E-01 </wgt>
<wgt id='1929'> +4.6838471E-01 </wgt>
<wgt id='1930'> +4.3631211E-01 </wgt>
<wgt id='1931'> +4.5038644E-01 </wgt>
<wgt id='1932'> +4.4554351E-01 </wgt>
<wgt id='1933'> +4.7153012E-01 </wgt>
<wgt id='1934'> +4.6744828E-01 </wgt>
<wgt id='1935'> +4.7040989E-01 </wgt>
<wgt id='1936'> +4.8316969E-01 </wgt>
<wgt id='1937'> +4.7874625E-01 </wgt>
<wgt id='1938'> +4.4785357E-01 </wgt>
<wgt id='1939'> +4.7521548E-01 </wgt>
<wgt id='1940'> +4.3508848E-01 </wgt>
<wgt id='1941'> +4.5270358E-01 </wgt>
<wgt id='1942'> +4.4780924E-01 </wgt>
<wgt id='1943'> +4.4185637E-01 </wgt>
<wgt id='1944'> +4.4899574E-01 </wgt>
<wgt id='1945'> +4.4089353E-01 </wgt>
<wgt id='1946'> +4.8011116E-01 </wgt>
<wgt id='1947'> +4.6194800E-01 </wgt>
<wgt id='1948'> +4.8026262E-01 </wgt>
<wgt id='1949'> +4.5723773E-01 </wgt>
<wgt id='1950'> +4.4047331E-01 </wgt>
<wgt id='1951'> +4.3660915E-01 </wgt>
<wgt id='1952'> +4.4089296E-01 </wgt>
<wgt id='1953'> +4.3154216E-01 </wgt>
<wgt id='1954'> +4.5477362E-01 </wgt>
<wgt id='1955'> +4.5016288E-01 </wgt>
<wgt id='1956'> +4.6767471E-01 </wgt>
<wgt id='1957'> +4.6151205E-01 </wgt>
<wgt id='1958'> +4.5014889E-01 </wgt>
<wgt id='1959'> +4.4165070E-01 </wgt>
<wgt id='1960'> +4.4782893E-01 </wgt>
<wgt id='1961'> +4.3877782E-01 </wgt>
<wgt id='1962'> +4.3257828E-01 </wgt>
<wgt id='1963'> +4.5718669E-01 </wgt>
<wgt id='1964'> +4.6480803E-01 </wgt>
<wgt id='1965'> +4.4989756E-01 </wgt>
<wgt id='1966'> +4.6159789E-01 </wgt>
<wgt id='1967'> +4.6079082E-01 </wgt>
<wgt id='1968'> +4.7232235E-01 </wgt>
<wgt id='1969'> +4.5466842E-01 </wgt>
<wgt id='1970'> +4.4818369E-01 </wgt>
<wgt id='1971'> +4.5850069E-01 </wgt>
<wgt id='1972'> +4.5051744E-01 </wgt>
<wgt id='1973'> +4.3613128E-01 </wgt>
<wgt id='1974'> +4.4439128E-01 </wgt>
<wgt id='1975'> +4.7797165E-01 </wgt>
<wgt id='1976'> +4.4857013E-01 </wgt>
<wgt id='1977'> +4.5483855E-01 </wgt>
<wgt id='1978'> +4.7355970E-01 </wgt>
<wgt id='1979'> +4.5442140E-01 </wgt>
<wgt id='1980'> +4.5805963E-01 </wgt>
<wgt id='1981'> +4.7062734E-01 </wgt>
<wgt id='1982'> +4.2501990E-01 </wgt>
<wgt id='1983'> +4.8368887E-01 </wgt>
<wgt id='1984'> +4.0827244E-01 </wgt>
<wgt id='1985'> +4.5293194E-01 </wgt>
<wgt id='1986'> +4.7361169E-01 </wgt>
<wgt id='1987'> +4.4350527E-01 </wgt>
<wgt id='1988'> +4.3763728E-01 </wgt>
<wgt id='1989'> +4.4497493E-01 </wgt>
<wgt id='1990'> +4.4125679E-01 </wgt>
<wgt id='1991'> +4.5035443E-01 </wgt>
<wgt id='1992'> +4.6066009E-01 </wgt>
<wgt id='1993'> +4.4696092E-01 </wgt>
<wgt id='1994'> +4.6484671E-01 </wgt>
<wgt id='1995'> +4.3239951E-01 </wgt>
<wgt id='1996'> +4.3335073E-01 </wgt>
<wgt id='1997'> +4.3572524E-01 </wgt>
<wgt id='1998'> +4.5649065E-01 </wgt>
<wgt id='1999'> +4.4701770E-01 </wgt>
<wgt id='2000'> +4.3971315E-01 </wgt>
<wgt id='2001'> +4.4767209E-01 </wgt>
<wgt id='2002'> +4.6552830E-01 </wgt>
<wgt id='2003'> +4.6269123E-01 </wgt>
<wgt id='2004'> +4.7303903E-01 </wgt>
<wgt id='2005'> +4.5950857E-01 </wgt>
<wgt id='2006'> +4.6455013E-01 </wgt>
<wgt id='2007'> +4.5748861E-01 </wgt>
<wgt id='2008'> +4.5701015E-01 </wgt>
<wgt id='2009'> +4.4718935E-01 </wgt>
<wgt id='2010'> +4.5209091E-01 </wgt>
<wgt id='2011'> +4.4294478E-01 </wgt>
<wgt id='2012'> +4.7245646E-01 </wgt>
<wgt id='2013'> +4.6375843E-01 </wgt>
<wgt id='2014'> +4.9011176E-01 </wgt>
<wgt id='2015'> +4.3369668E-01 </wgt>
<wgt id='2016'> +4.5683141E-01 </wgt>
<wgt id='2017'> +4.3499843E-01 </wgt>
<wgt id='2018'> +4.5536868E-01 </wgt>
<wgt id='2019'> +4.8415985E-01 </wgt>
<wgt id='2020'> +4.4663826E-01 </wgt>
<wgt id='2021'> +4.6156286E-01 </wgt>
<wgt id='2022'> +4.8870711E-01 </wgt>
</rwgt>
</event>
<event>
13      1 +3.9556008E-01 1.15377900e+02 7.81860800e-03 1.14540700e-01
        2 -1    0    0  501    0 +0.0000000000e+00 +0.0000000000e+00 +1.4823757287e+03 1.4823757287e+03 2.5500000000e-03 0.0000e+00 -1.0000e+00
       21 -1    0    0  502  503 +0.0000000000e+00 +0.0000000000e+00 -4.9003446909e+02 4.9003446909e+02 0.0000000000e+00 0.0000e+00 -1.0000e+00
  8000001  2    1    2  502    0 +2.8911401984e+01 +5.1096684527e+01 -3.0153660493e+02 6.7407097991e+02 6.0000051792e+02 0.0000e+00 0.0000e+00
        1  1    1    2  501    0 -8.4534056556e+00 -5.7971626570e+01 +1.2154761756e+03 1.2168872187e+03 5.0400000000e-03 0.0000e+00 -1.0000e+00
       -5  1    1    2    0  503 -2.0457996328e+01 +6.8749420422e+00 +7.8401688992e+01 8.1451999234e+01 4.6700000000e+00 0.0000e+00 1.0000e+00
        6  2    3    3  502    0 +1.8763387014e+02 +1.6364204032e+02 +9.0870655427e-01 3.0286081187e+02 1.7244900416e+02 0.0000e+00 0.0000e+00
        5  1    6    6  502    0 +1.4977328146e+02 +9.8886023801e+01 +4.2938087604e+01 1.8459677628e+02 4.6700000000e+00 0.0000e+00 -1.0000e+00
       24  2    6    6    0    0 +3.7860588679e+01 +6.4756016522e+01 -4.2029381050e+01 1.1826403560e+02 8.1198198216e+01 0.0000e+00 0.0000e+00
        2  1    8    8  504    0 +4.3679415649e+01 +1.8650616884e+01 -5.2325375857e+01 7.0665987764e+01 2.5500000000e-03 0.0000e+00 -1.0000e+00
       -1  1    8    8    0  504 -5.8188269704e+00 +4.6105399638e+01 +1.0295994807e+01 4.7598047833e+01 5.0400000000e-03 0.0000e+00 1.0000e+00
       23  2    3    3    0    0 -1.5872246816e+02 -1.1254535580e+02 -3.0244531148e+02 3.7121016803e+02 9.2002953227e+01 0.0000e+00 0.0000e+00
       14  1   11   11    0    0 -5.8990759750e+01 -9.4607060571e+01 -1.8592426858e+02 2.1679077308e+02 0.0000000000e+00 0.0000e+00 -1.0000e+00
      -14  1   11   11    0    0 -9.9731708410e+01 -1.7938295225e+01 -1.1652104290e+02 1.5441939495e+02 0.0000000000e+00 0.0000e+00 1.0000e+00
<mgrwt>
<rscale>  1 0.82211563e+02</rscale>
<asrwt>0</asrwt>
<pdfrwt beam="1">  1       21 0.75389919e-01 0.11537789e+03</pdfrwt>
<pdfrwt beam="2">  1        2 0.22805780e+00 0.58579168e+02</pdfrwt>
<totfact> 0.37017405e+02</totfact>
</mgrwt>
<rwgt>
<wgt id='1001'> +3.9556008E-01 </wgt>
<wgt id='1002'> +2.2807473E-01 </wgt>
<wgt id='1003'> +2.2802683E-01 </wgt>
<wgt id='1004'> +2.7398587E-01 </wgt>
<wgt id='1005'> +1.7511181E-01 </wgt>
<wgt id='1006'> +3.5593156E-01 </wgt>
<wgt id='1007'> +2.1040508E-01 </wgt>
<wgt id='1008'> +2.1036259E-01 </wgt>
<wgt id='1009'> +2.5089039E-01 </wgt>
<wgt id='1010'> +1.6308783E-01 </wgt>
<wgt id='1011'> +4.4550569E-01 </wgt>
<wgt id='1012'> +2.4907232E-01 </wgt>
<wgt id='1013'> +2.4901763E-01 </wgt>
<wgt id='1014'> +3.0191036E-01 </wgt>
<wgt id='1015'> +1.8909493E-01 </wgt>
<wgt id='1016'> +3.5507221E-01 </wgt>
<wgt id='1017'> +2.0864928E-01 </wgt>
<wgt id='1018'> +2.0860693E-01 </wgt>
<wgt id='1019'> +2.4901763E-01 </wgt>
<wgt id='1020'> +1.6141329E-01 </wgt>
<wgt id='1021'> +3.1949990E-01 </wgt>
<wgt id='1022'> +1.9248458E-01 </wgt>
<wgt id='1023'> +1.9244707E-01 </wgt>
<wgt id='1024'> +2.2802683E-01 </wgt>
<wgt id='1025'> +1.5032990E-01 </wgt>
<wgt id='1026'> +3.9990560E-01 </wgt>
<wgt id='1027'> +2.2785849E-01 </wgt>
<wgt id='1028'> +2.2781005E-01 </wgt>
<wgt id='1029'> +2.7439737E-01 </wgt>
<wgt id='1030'> +1.7430255E-01 </wgt>
<wgt id='1031'> +4.4446611E-01 </wgt>
<wgt id='1032'> +2.5094485E-01 </wgt>
<wgt id='1033'> +2.5089039E-01 </wgt>
<wgt id='1034'> +3.0326850E-01 </wgt>
<wgt id='1035'> +1.9089099E-01 </wgt>
<wgt id='1036'> +3.9993802E-01 </wgt>
<wgt id='1037'> +2.3150338E-01 </wgt>
<wgt id='1038'> +2.3145501E-01 </wgt>
<wgt id='1039'> +2.7770466E-01 </wgt>
<wgt id='1040'> +1.7778354E-01 </wgt>
<wgt id='1041'> +5.0058686E-01 </wgt>
<wgt id='1042'> +2.7404798E-01 </wgt>
<wgt id='1043'> +2.7398587E-01 </wgt>
<wgt id='1044'> +3.3417745E-01 </wgt>
<wgt id='1045'> +2.0613413E-01 </wgt>
<wgt id='1046'> +3.9556008E-01 </wgt>
<wgt id='1047'> +3.9556008E-01 </wgt>
<wgt id='1048'> +3.9556008E-01 </wgt>
<wgt id='1049'> +3.9504784E-01 </wgt>
<wgt id='1050'> +3.9533107E-01 </wgt>
<wgt id='1051'> +3.9715461E-01 </wgt>
<wgt id='1052'> +3.9471991E-01 </wgt>
<wgt id='1053'> +3.9670094E-01 </wgt>
<wgt id='1054'> +3.9513361E-01 </wgt>
<wgt id='1055'> +3.9455364E-01 </wgt>
<wgt id='1056'> +3.9486325E-01 </wgt>
<wgt id='1057'> +3.9550822E-01 </wgt>
<wgt id='1058'> +3.9547522E-01 </wgt>
<wgt id='1059'> +3.9648498E-01 </wgt>
<wgt id='1060'> +3.9420404E-01 </wgt>
<wgt id='1061'> +3.9590735E-01 </wgt>
<wgt id='1062'> +3.9622684E-01 </wgt>
<wgt id='1063'> +3.9526658E-01 </wgt>
<wgt id='1064'> +3.9621360E-01 </wgt>
<wgt id='1065'> +3.9710490E-01 </wgt>
<wgt id='1066'> +3.9398392E-01 </wgt>
<wgt id='1067'> +3.9373936E-01 </wgt>
<wgt id='1068'> +3.9527698E-01 </wgt>
<wgt id='1069'> +3.9429940E-01 </wgt>
<wgt id='1070'> +3.9665921E-01 </wgt>
<wgt id='1071'> +3.9559870E-01 </wgt>
<wgt id='1072'> +3.9588298E-01 </wgt>
<wgt id='1073'> +3.9506514E-01 </wgt>
<wgt id='1074'> +3.9567052E-01 </wgt>
<wgt id='1075'> +3.9349240E-01 </wgt>
<wgt id='1076'> +3.9645805E-01 </wgt>
<wgt id='1077'> +3.9646349E-01 </wgt>
<wgt id='1078'> +3.9558742E-01 </wgt>
<wgt id='1079'> +3.9724482E-01 </wgt>
<wgt id='1080'> +3.9689200E-01 </wgt>
<wgt id='1081'> +3.9607047E-01 </wgt>
<wgt id='1082'> +3.9602125E-01 </wgt>
<wgt id='1083'> +3.9502867E-01 </wgt>
<wgt id='1084'> +3.9507309E-01 </wgt>
<wgt id='1085'> +3.9666013E-01 </wgt>
<wgt id='1086'> +3.9456824E-01 </wgt>
<wgt id='1087'> +3.9564278E-01 </wgt>
<wgt id='1088'> +3.9597049E-01 </wgt>
<wgt id='1089'> +3.9574873E-01 </wgt>
<wgt id='1090'> +3.9578156E-01 </wgt>
<wgt id='1091'> +3.9486182E-01 </wgt>
<wgt id='1092'> +3.9480870E-01 </wgt>
<wgt id='1093'> +3.9544691E-01 </wgt>
<wgt id='1094'> +3.9551155E-01 </wgt>
<wgt id='1095'> +3.9480793E-01 </wgt>
<wgt id='1096'> +3.9472159E-01 </wgt>
<wgt id='1097'> +3.9530018E-01 </wgt>
<wgt id='1098'> +3.9543677E-01 </wgt>
<wgt id='1099'> +3.9543246E-01 </wgt>
<wgt id='1100'> +3.9575300E-01 </wgt>
<wgt id='1101'> +3.9529129E-01 </wgt>
<wgt id='1102'> +3.9570175E-01 </wgt>
<wgt id='1103'> +3.9599525E-01 </wgt>
<wgt id='1104'> +3.9552780E-01 </wgt>
<wgt id='1105'> +3.9596327E-01 </wgt>
<wgt id='1106'> +3.9587092E-01 </wgt>
<wgt id='1107'> +3.9530395E-01 </wgt>
<wgt id='1108'> +3.9575557E-01 </wgt>
<wgt id='1109'> +3.9577589E-01 </wgt>
<wgt id='1110'> +3.9553611E-01 </wgt>
<wgt id='1111'> +3.9532673E-01 </wgt>
<wgt id='1112'> +3.9576110E-01 </wgt>
<wgt id='1113'> +3.9560423E-01 </wgt>
<wgt id='1114'> +3.9465450E-01 </wgt>
<wgt id='1115'> +3.9587515E-01 </wgt>
<wgt id='1116'> +3.9555243E-01 </wgt>
<wgt id='1117'> +3.9573779E-01 </wgt>
<wgt id='1118'> +3.9548088E-01 </wgt>
<wgt id='1119'> +3.9566647E-01 </wgt>
<wgt id='1120'> +3.9536664E-01 </wgt>
<wgt id='1121'> +3.9610466E-01 </wgt>
<wgt id='1122'> +3.9548686E-01 </wgt>
<wgt id='1123'> +3.9563806E-01 </wgt>
<wgt id='1124'> +3.9540432E-01 </wgt>
<wgt id='1125'> +3.9549965E-01 </wgt>
<wgt id='1126'> +3.9553232E-01 </wgt>
<wgt id='1127'> +3.9591327E-01 </wgt>
<wgt id='1128'> +3.9549849E-01 </wgt>
<wgt id='1129'> +3.9563631E-01 </wgt>
<wgt id='1130'> +3.9571559E-01 </wgt>
<wgt id='1131'> +3.9587568E-01 </wgt>
<wgt id='1132'> +3.9538943E-01 </wgt>
<wgt id='1133'> +3.9572598E-01 </wgt>
<wgt id='1134'> +3.9547113E-01 </wgt>
<wgt id='1135'> +3.9581955E-01 </wgt>
<wgt id='1136'> +3.9569428E-01 </wgt>
<wgt id='1137'> +3.9555238E-01 </wgt>
<wgt id='1138'> +3.9574911E-01 </wgt>
<wgt id='1139'> +3.9552106E-01 </wgt>
<wgt id='1140'> +3.9586822E-01 </wgt>
<wgt id='1141'> +3.9556755E-01 </wgt>
<wgt id='1142'> +3.9568031E-01 </wgt>
<wgt id='1143'> +3.9583687E-01 </wgt>
<wgt id='1144'> +3.9537591E-01 </wgt>
<wgt id='1145'> +3.9544210E-01 </wgt>
<wgt id='1146'> +3.9552292E-01 </wgt>
<wgt id='1147'> +3.9578667E-01 </wgt>
<wgt id='1148'> +3.9556008E-01 </wgt>
<wgt id='1149'> +3.7570142E-01 </wgt>
<wgt id='1150'> +3.7849625E-01 </wgt>
<wgt id='1151'> +3.7271422E-01 </wgt>
<wgt id='1152'> +3.6768144E-01 </wgt>
<wgt id='1153'> +3.7313928E-01 </wgt>
<wgt id='1154'> +3.7964245E-01 </wgt>
<wgt id='1155'> +3.8204135E-01 </wgt>
<wgt id='1156'> +3.8043065E-01 </wgt>
<wgt id='1157'> +3.8216728E-01 </wgt>
<wgt id='1158'> +3.7270762E-01 </wgt>
<wgt id='1159'> +3.5666476E-01 </wgt>
<wgt id='1160'> +3.7124744E-01 </wgt>
<wgt id='1161'> +3.8352812E-01 </wgt>
<wgt id='1162'> +3.6802568E-01 </wgt>
<wgt id='1163'> +3.8472790E-01 </wgt>
<wgt id='1164'> +3.7204709E-01 </wgt>
<wgt id='1165'> +3.7132419E-01 </wgt>
<wgt id='1166'> +3.7766919E-01 </wgt>
<wgt id='1167'> +3.8038959E-01 </wgt>
<wgt id='1168'> +3.7119731E-01 </wgt>
<wgt id='1169'> +3.6779589E-01 </wgt>
<wgt id='1170'> +3.7654201E-01 </wgt>
<wgt id='1171'> +3.7350097E-01 </wgt>
<wgt id='1172'> +3.7741054E-01 </wgt>
<wgt id='1173'> +3.7696350E-01 </wgt>
<wgt id='1174'> +3.8204160E-01 </wgt>
<wgt id='1175'> +3.7953412E-01 </wgt>
<wgt id='1176'> +3.5685746E-01 </wgt>
<wgt id='1177'> +3.8189450E-01 </wgt>
<wgt id='1178'> +3.7602157E-01 </wgt>
<wgt id='1179'> +3.6840745E-01 </wgt>
<wgt id='1180'> +3.7604262E-01 </wgt>
<wgt id='1181'> +3.7842063E-01 </wgt>
<wgt id='1182'> +3.7987442E-01 </wgt>
<wgt id='1183'> +3.7998717E-01 </wgt>
<wgt id='1184'> +3.6972873E-01 </wgt>
<wgt id='1185'> +3.8194313E-01 </wgt>
<wgt id='1186'> +3.7073578E-01 </wgt>
<wgt id='1187'> +3.7583298E-01 </wgt>
<wgt id='1188'> +3.6909331E-01 </wgt>
<wgt id='1189'> +3.8159402E-01 </wgt>
<wgt id='1190'> +3.7601730E-01 </wgt>
<wgt id='1191'> +3.8309236E-01 </wgt>
<wgt id='1192'> +3.7285098E-01 </wgt>
<wgt id='1193'> +3.8080606E-01 </wgt>
<wgt id='1194'> +3.7856682E-01 </wgt>
<wgt id='1195'> +3.7526506E-01 </wgt>
<wgt id='1196'> +3.7576831E-01 </wgt>
<wgt id='1197'> +3.8230678E-01 </wgt>
<wgt id='1198'> +3.7065494E-01 </wgt>
<wgt id='1199'> +3.7096790E-01 </wgt>
<wgt id='1200'> +3.7863020E-01 </wgt>
<wgt id='1201'> +3.7997252E-01 </wgt>
<wgt id='1202'> +3.7624011E-01 </wgt>
<wgt id='1203'> +3.7751492E-01 </wgt>
<wgt id='1204'> +3.8578568E-01 </wgt>
<wgt id='1205'> +3.7348320E-01 </wgt>
<wgt id='1206'> +3.7606097E-01 </wgt>
<wgt id='1207'> +3.8122967E-01 </wgt>
<wgt id='1208'> +3.7591195E-01 </wgt>
<wgt id='1209'> +3.8295563E-01 </wgt>
<wgt id='1210'> +3.6626298E-01 </wgt>
<wgt id='1211'> +3.7534895E-01 </wgt>
<wgt id='1212'> +3.7406919E-01 </wgt>
<wgt id='1213'> +3.8601183E-01 </wgt>
<wgt id='1214'> +3.7699736E-01 </wgt>
<wgt id='1215'> +3.7888717E-01 </wgt>
<wgt id='1216'> +3.7789570E-01 </wgt>
<wgt id='1217'> +3.6759687E-01 </wgt>
<wgt id='1218'> +3.7788752E-01 </wgt>
<wgt id='1219'> +3.7610103E-01 </wgt>
<wgt id='1220'> +3.7483141E-01 </wgt>
<wgt id='1221'> +3.5373836E-01 </wgt>
<wgt id='1222'> +3.7769252E-01 </wgt>
<wgt id='1223'> +3.6581893E-01 </wgt>
<wgt id='1224'> +3.7154706E-01 </wgt>
<wgt id='1225'> +3.7863757E-01 </wgt>
<wgt id='1226'> +3.7109861E-01 </wgt>
<wgt id='1227'> +3.7874132E-01 </wgt>
<wgt id='1228'> +3.7445073E-01 </wgt>
<wgt id='1229'> +3.7333302E-01 </wgt>
<wgt id='1230'> +3.8021704E-01 </wgt>
<wgt id='1231'> +3.7132419E-01 </wgt>
<wgt id='1232'> +3.6987270E-01 </wgt>
<wgt id='1233'> +3.7538745E-01 </wgt>
<wgt id='1234'> +3.7184438E-01 </wgt>
<wgt id='1235'> +3.7499507E-01 </wgt>
<wgt id='1236'> +3.7958358E-01 </wgt>
<wgt id='1237'> +3.7418771E-01 </wgt>
<wgt id='1238'> +3.6712955E-01 </wgt>
<wgt id='1239'> +3.8971480E-01 </wgt>
<wgt id='1240'> +3.8622839E-01 </wgt>
<wgt id='1241'> +3.7817401E-01 </wgt>
<wgt id='1242'> +3.7348204E-01 </wgt>
<wgt id='1243'> +3.7477413E-01 </wgt>
<wgt id='1244'> +3.7865796E-01 </wgt>
<wgt id='1245'> +3.8227985E-01 </wgt>
<wgt id='1246'> +3.7542406E-01 </wgt>
<wgt id='1247'> +3.7383023E-01 </wgt>
<wgt id='1248'> +3.7615458E-01 </wgt>
<wgt id='1249'> +3.7819452E-01 </wgt>
<wgt id='1250'> +3.8513727E-01 </wgt>
<wgt id='1251'> +3.7927477E-01 </wgt>
<wgt id='1252'> +3.9702937E-01 </wgt>
<wgt id='1253'> +3.9253320E-01 </wgt>
<wgt id='1254'> +3.7368188E-01 </wgt>
<wgt id='1255'> +4.0410585E-01 </wgt>
<wgt id='1256'> +4.0685803E-01 </wgt>
<wgt id='1257'> +4.0255187E-01 </wgt>
<wgt id='1258'> +4.0359601E-01 </wgt>
<wgt id='1259'> +4.0438265E-01 </wgt>
<wgt id='1260'> +4.0478441E-01 </wgt>
<wgt id='1261'> +4.0323053E-01 </wgt>
<wgt id='1262'> +4.0461281E-01 </wgt>
<wgt id='1263'> +4.0381670E-01 </wgt>
<wgt id='1264'> +4.0388811E-01 </wgt>
<wgt id='1265'> +4.0431204E-01 </wgt>
<wgt id='1266'> +4.0440265E-01 </wgt>
<wgt id='1267'> +4.0384892E-01 </wgt>
<wgt id='1268'> +4.0821843E-01 </wgt>
<wgt id='1269'> +4.0003404E-01 </wgt>
<wgt id='1270'> +4.0206193E-01 </wgt>
<wgt id='1271'> +4.0605679E-01 </wgt>
<wgt id='1272'> +4.0383153E-01 </wgt>
<wgt id='1273'> +4.0435528E-01 </wgt>
<wgt id='1274'> +4.0409185E-01 </wgt>
<wgt id='1275'> +4.0415745E-01 </wgt>
<wgt id='1276'> +4.0537745E-01 </wgt>
<wgt id='1277'> +4.0282518E-01 </wgt>
<wgt id='1278'> +4.0159206E-01 </wgt>
<wgt id='1279'> +4.0617285E-01 </wgt>
<wgt id='1280'> +4.0392155E-01 </wgt>
<wgt id='1281'> +4.0462218E-01 </wgt>
<wgt id='1282'> +4.0591359E-01 </wgt>
<wgt id='1283'> +4.0198639E-01 </wgt>
<wgt id='1284'> +4.0295933E-01 </wgt>
<wgt id='1285'> +4.0520153E-01 </wgt>
<wgt id='1286'> +4.0564121E-01 </wgt>
<wgt id='1287'> +4.0404332E-01 </wgt>
<wgt id='1288'> +4.0451474E-01 </wgt>
<wgt id='1289'> +4.0387112E-01 </wgt>
<wgt id='1290'> +4.0477684E-01 </wgt>
<wgt id='1291'> +4.0389811E-01 </wgt>
<wgt id='1292'> +4.0679803E-01 </wgt>
<wgt id='1293'> +4.0092807E-01 </wgt>
<wgt id='1294'> +4.0181657E-01 </wgt>
<wgt id='1295'> +4.0452385E-01 </wgt>
<wgt id='1296'> +3.9452771E-01 </wgt>
<wgt id='1297'> +3.9557512E-01 </wgt>
<wgt id='1298'> +3.9365551E-01 </wgt>
<wgt id='1299'> +3.9317499E-01 </wgt>
<wgt id='1300'> +3.9601303E-01 </wgt>
<wgt id='1301'> +3.9355799E-01 </wgt>
<wgt id='1302'> +3.9594173E-01 </wgt>
<wgt id='1303'> +3.9423263E-01 </wgt>
<wgt id='1304'> +3.9469890E-01 </wgt>
<wgt id='1305'> +3.9488569E-01 </wgt>
<wgt id='1306'> +3.9400555E-01 </wgt>
<wgt id='1307'> +3.9632386E-01 </wgt>
<wgt id='1308'> +3.9338461E-01 </wgt>
<wgt id='1309'> +3.9479509E-01 </wgt>
<wgt id='1310'> +3.9413939E-01 </wgt>
<wgt id='1311'> +3.9817413E-01 </wgt>
<wgt id='1312'> +3.9319544E-01 </wgt>
<wgt id='1313'> +3.9279485E-01 </wgt>
<wgt id='1314'> +3.9659601E-01 </wgt>
<wgt id='1315'> +3.9470454E-01 </wgt>
<wgt id='1316'> +3.9432963E-01 </wgt>
<wgt id='1317'> +3.9448217E-01 </wgt>
<wgt id='1318'> +3.9484888E-01 </wgt>
<wgt id='1319'> +3.9373582E-01 </wgt>
<wgt id='1320'> +3.9511330E-01 </wgt>
<wgt id='1321'> +3.9238675E-01 </wgt>
<wgt id='1322'> +3.9560953E-01 </wgt>
<wgt id='1323'> +3.9389784E-01 </wgt>
<wgt id='1324'> +3.9507967E-01 </wgt>
<wgt id='1325'> +3.9470316E-01 </wgt>
<wgt id='1326'> +3.9444848E-01 </wgt>
<wgt id='1327'> +3.9439229E-01 </wgt>
<wgt id='1328'> +3.9459484E-01 </wgt>
<wgt id='1329'> +3.9467914E-01 </wgt>
<wgt id='1330'> +3.9440088E-01 </wgt>
<wgt id='1331'> +3.9549443E-01 </wgt>
<wgt id='1332'> +3.9443016E-01 </wgt>
<wgt id='1333'> +3.9798900E-01 </wgt>
<wgt id='1334'> +3.9223942E-01 </wgt>
<wgt id='1335'> +3.9613190E-01 </wgt>
<wgt id='1336'> +3.9412251E-01 </wgt>
<wgt id='1337'> +3.9452771E-01 </wgt>
<wgt id='1338'> +3.9486153E-01 </wgt>
<wgt id='1339'> +3.9472740E-01 </wgt>
<wgt id='1340'> +3.9458593E-01 </wgt>
<wgt id='1341'> +3.9435011E-01 </wgt>
<wgt id='1342'> +3.9424766E-01 </wgt>
<wgt id='1343'> +3.9412219E-01 </wgt>
<wgt id='1344'> +3.9374835E-01 </wgt>
<wgt id='1345'> +3.9539786E-01 </wgt>
<wgt id='1346'> +3.9213868E-01 </wgt>
<wgt id='1347'> +3.9623048E-01 </wgt>
<wgt id='1348'> +3.9191704E-01 </wgt>
<wgt id='1349'> +3.9314775E-01 </wgt>
<wgt id='1350'> +3.9425472E-01 </wgt>
<wgt id='1351'> +3.9375604E-01 </wgt>
<wgt id='1352'> +3.9374679E-01 </wgt>
<wgt id='1353'> +3.9478696E-01 </wgt>
<wgt id='1354'> +3.9301839E-01 </wgt>
<wgt id='1355'> +3.9310376E-01 </wgt>
<wgt id='1356'> +3.9423914E-01 </wgt>
<wgt id='1357'> +3.9420944E-01 </wgt>
<wgt id='1358'> +3.9346834E-01 </wgt>
<wgt id='1359'> +3.9216309E-01 </wgt>
<wgt id='1360'> +3.9772208E-01 </wgt>
<wgt id='1361'> +3.9237810E-01 </wgt>
<wgt id='1362'> +3.9521107E-01 </wgt>
<wgt id='1363'> +3.9358728E-01 </wgt>
<wgt id='1364'> +3.9395693E-01 </wgt>
<wgt id='1365'> +3.9321956E-01 </wgt>
<wgt id='1366'> +3.9402827E-01 </wgt>
<wgt id='1367'> +3.9109055E-01 </wgt>
<wgt id='1368'> +3.9507157E-01 </wgt>
<wgt id='1369'> +3.9443081E-01 </wgt>
<wgt id='1370'> +3.9323145E-01 </wgt>
<wgt id='1371'> +3.9382700E-01 </wgt>
<wgt id='1372'> +3.9364796E-01 </wgt>
<wgt id='1373'> +3.9607003E-01 </wgt>
<wgt id='1374'> +3.9326592E-01 </wgt>
<wgt id='1375'> +3.9443847E-01 </wgt>
<wgt id='1376'> +3.9363283E-01 </wgt>
<wgt id='1377'> +3.9375234E-01 </wgt>
<wgt id='1378'> +3.9380429E-01 </wgt>
<wgt id='1379'> +3.9403204E-01 </wgt>
<wgt id='1380'> +3.9432119E-01 </wgt>
<wgt id='1381'> +3.9108416E-01 </wgt>
<wgt id='1382'> +3.9588820E-01 </wgt>
<wgt id='1383'> +3.9322868E-01 </wgt>
<wgt id='1384'> +3.9672995E-01 </wgt>
<wgt id='1385'> +3.9374835E-01 </wgt>
<wgt id='1386'> +3.9408582E-01 </wgt>
<wgt id='1387'> +3.9397725E-01 </wgt>
<wgt id='1388'> +3.9383399E-01 </wgt>
<wgt id='1389'> +3.9357152E-01 </wgt>
<wgt id='1390'> +3.9344392E-01 </wgt>
<wgt id='1391'> +3.9331716E-01 </wgt>
<wgt id='1392'> +4.0892625E-01 </wgt>
<wgt id='1393'> +4.0909804E-01 </wgt>
<wgt id='1394'> +4.0876914E-01 </wgt>
<wgt id='1395'> +4.0924132E-01 </wgt>
<wgt id='1396'> +4.0870265E-01 </wgt>
<wgt id='1397'> +4.1066583E-01 </wgt>
<wgt id='1398'> +4.0723607E-01 </wgt>
<wgt id='1399'> +4.1040657E-01 </wgt>
<wgt id='1400'> +4.0712305E-01 </wgt>
<wgt id='1401'> +4.0757645E-01 </wgt>
<wgt id='1402'> +4.1059553E-01 </wgt>
<wgt id='1403'> +4.0861800E-01 </wgt>
<wgt id='1404'> +4.0955692E-01 </wgt>
<wgt id='1405'> +4.0841141E-01 </wgt>
<wgt id='1406'> +4.0966567E-01 </wgt>
<wgt id='1407'> +4.0866582E-01 </wgt>
<wgt id='1408'> +4.0910052E-01 </wgt>
<wgt id='1409'> +4.1067264E-01 </wgt>
<wgt id='1410'> +4.0693071E-01 </wgt>
<wgt id='1411'> +4.0827820E-01 </wgt>
<wgt id='1412'> +4.0943064E-01 </wgt>
<wgt id='1413'> +4.1037389E-01 </wgt>
<wgt id='1414'> +4.0742749E-01 </wgt>
<wgt id='1415'> +4.1029317E-01 </wgt>
<wgt id='1416'> +4.0744123E-01 </wgt>
<wgt id='1417'> +4.0652397E-01 </wgt>
<wgt id='1418'> +4.1188532E-01 </wgt>
<wgt id='1419'> +4.0889397E-01 </wgt>
<wgt id='1420'> +4.0872701E-01 </wgt>
<wgt id='1421'> +4.0866206E-01 </wgt>
<wgt id='1422'> +4.0932376E-01 </wgt>
<wgt id='1423'> +4.0684101E-01 </wgt>
<wgt id='1424'> +4.1026682E-01 </wgt>
<wgt id='1425'> +4.0916919E-01 </wgt>
<wgt id='1426'> +4.0860454E-01 </wgt>
<wgt id='1427'> +4.0868715E-01 </wgt>
<wgt id='1428'> +4.0705972E-01 </wgt>
<wgt id='1429'> +4.0839061E-01 </wgt>
<wgt id='1430'> +4.0938267E-01 </wgt>
<wgt id='1431'> +4.0821609E-01 </wgt>
<wgt id='1432'> +4.0948867E-01 </wgt>
<wgt id='1433'> +4.0635326E-01 </wgt>
<wgt id='1434'> +4.1157627E-01 </wgt>
<wgt id='1435'> +4.0852814E-01 </wgt>
<wgt id='1436'> +4.0963287E-01 </wgt>
<wgt id='1437'> +4.0842068E-01 </wgt>
<wgt id='1438'> +4.1011232E-01 </wgt>
<wgt id='1439'> +4.1202414E-01 </wgt>
<wgt id='1440'> +4.0531100E-01 </wgt>
<wgt id='1441'> +4.0994295E-01 </wgt>
<wgt id='1442'> +4.0940529E-01 </wgt>
<wgt id='1443'> +4.0470410E-01 </wgt>
<wgt id='1444'> +4.0485974E-01 </wgt>
<wgt id='1445'> +4.0450226E-01 </wgt>
<wgt id='1446'> +4.0502431E-01 </wgt>
<wgt id='1447'> +4.0444833E-01 </wgt>
<wgt id='1448'> +4.0652472E-01 </wgt>
<wgt id='1449'> +4.0298639E-01 </wgt>
<wgt id='1450'> +4.0606270E-01 </wgt>
<wgt id='1451'> +4.0315862E-01 </wgt>
<wgt id='1452'> +4.0335764E-01 </wgt>
<wgt id='1453'> +4.0596356E-01 </wgt>
<wgt id='1454'> +4.0430486E-01 </wgt>
<wgt id='1455'> +4.0553313E-01 </wgt>
<wgt id='1456'> +4.0405938E-01 </wgt>
<wgt id='1457'> +4.0579588E-01 </wgt>
<wgt id='1458'> +4.0451851E-01 </wgt>
<wgt id='1459'> +4.0478363E-01 </wgt>
<wgt id='1460'> +4.0629891E-01 </wgt>
<wgt id='1461'> +4.0274175E-01 </wgt>
<wgt id='1462'> +4.0368204E-01 </wgt>
<wgt id='1463'> +4.0555271E-01 </wgt>
<wgt id='1464'> +4.0602187E-01 </wgt>
<wgt id='1465'> +4.0293442E-01 </wgt>
<wgt id='1466'> +4.0669537E-01 </wgt>
<wgt id='1467'> +4.0320473E-01 </wgt>
<wgt id='1468'> +4.0739322E-01 </wgt>
<wgt id='1469'> +4.0202657E-01 </wgt>
<wgt id='1470'> +4.0481215E-01 </wgt>
<wgt id='1471'> +4.0444539E-01 </wgt>
<wgt id='1472'> +4.0449167E-01 </wgt>
<wgt id='1473'> +4.0493887E-01 </wgt>
<wgt id='1474'> +4.0323136E-01 </wgt>
<wgt id='1475'> +4.0604346E-01 </wgt>
<wgt id='1476'> +4.0528887E-01 </wgt>
<wgt id='1477'> +4.0404160E-01 </wgt>
<wgt id='1478'> +4.0452714E-01 </wgt>
<wgt id='1479'> +4.0280170E-01 </wgt>
<wgt id='1480'> +4.0442202E-01 </wgt>
<wgt id='1481'> +4.0493153E-01 </wgt>
<wgt id='1482'> +4.0400029E-01 </wgt>
<wgt id='1483'> +4.0532337E-01 </wgt>
<wgt id='1484'> +4.0204919E-01 </wgt>
<wgt id='1485'> +4.0740464E-01 </wgt>
<wgt id='1486'> +4.0448340E-01 </wgt>
<wgt id='1487'> +4.0516581E-01 </wgt>
<wgt id='1488'> +4.0407357E-01 </wgt>
<wgt id='1489'> +4.0609583E-01 </wgt>
<wgt id='1490'> +4.0855329E-01 </wgt>
<wgt id='1491'> +4.0121770E-01 </wgt>
<wgt id='1492'> +4.0632138E-01 </wgt>
<wgt id='1493'> +4.0516246E-01 </wgt>
<wgt id='1494'> +3.9131009E-01 </wgt>
<wgt id='1495'> +3.8560989E-01 </wgt>
<wgt id='1496'> +3.8761447E-01 </wgt>
<wgt id='1497'> +3.8944675E-01 </wgt>
<wgt id='1498'> +3.9315005E-01 </wgt>
<wgt id='1499'> +3.9128949E-01 </wgt>
<wgt id='1500'> +3.9551231E-01 </wgt>
<wgt id='1501'> +3.9473344E-01 </wgt>
<wgt id='1502'> +3.9396736E-01 </wgt>
<wgt id='1503'> +3.9312094E-01 </wgt>
<wgt id='1504'> +3.9224107E-01 </wgt>
<wgt id='1505'> +3.9039599E-01 </wgt>
<wgt id='1506'> +3.8947001E-01 </wgt>
<wgt id='1507'> +3.8851870E-01 </wgt>
<wgt id='1508'> +3.9128949E-01 </wgt>
<wgt id='1509'> +3.9173154E-01 </wgt>
<wgt id='1510'> +3.9148566E-01 </wgt>
<wgt id='1511'> +3.9115202E-01 </wgt>
<wgt id='1512'> +3.9099619E-01 </wgt>
<wgt id='1513'> +3.9279732E-01 </wgt>
<wgt id='1514'> +3.9274960E-01 </wgt>
<wgt id='1515'> +3.9285906E-01 </wgt>
<wgt id='1516'> +3.9354043E-01 </wgt>
<wgt id='1517'> +3.9204310E-01 </wgt>
<wgt id='1518'> +3.9360685E-01 </wgt>
<wgt id='1519'> +3.9246405E-01 </wgt>
<wgt id='1520'> +3.9517653E-01 </wgt>
<wgt id='1521'> +3.9040871E-01 </wgt>
<wgt id='1522'> +3.9209736E-01 </wgt>
<wgt id='1523'> +3.9345700E-01 </wgt>
<wgt id='1524'> +3.9486009E-01 </wgt>
<wgt id='1525'> +3.9189669E-01 </wgt>
<wgt id='1526'> +3.9277078E-01 </wgt>
<wgt id='1527'> +3.9282476E-01 </wgt>
<wgt id='1528'> +3.9225486E-01 </wgt>
<wgt id='1529'> +3.9338265E-01 </wgt>
<wgt id='1530'> +3.9514214E-01 </wgt>
<wgt id='1531'> +3.9145049E-01 </wgt>
<wgt id='1532'> +3.9408528E-01 </wgt>
<wgt id='1533'> +3.9100732E-01 </wgt>
<wgt id='1534'> +3.9150586E-01 </wgt>
<wgt id='1535'> +3.9369200E-01 </wgt>
<wgt id='1536'> +3.9063575E-01 </wgt>
<wgt id='1537'> +3.9489354E-01 </wgt>
<wgt id='1538'> +3.9188791E-01 </wgt>
<wgt id='1539'> +3.9486381E-01 </wgt>
<wgt id='1540'> +3.9214373E-01 </wgt>
<wgt id='1541'> +3.9298803E-01 </wgt>
<wgt id='1542'> +3.9311677E-01 </wgt>
<wgt id='1543'> +3.9225881E-01 </wgt>
<wgt id='1544'> +3.9192934E-01 </wgt>
<wgt id='1545'> +3.9376692E-01 </wgt>
<wgt id='1546'> +3.9259168E-01 </wgt>
<wgt id='1547'> +3.9217935E-01 </wgt>
<wgt id='1548'> +3.9112814E-01 </wgt>
<wgt id='1549'> +3.9266667E-01 </wgt>
<wgt id='1550'> +3.9276132E-01 </wgt>
<wgt id='1551'> +3.9258986E-01 </wgt>
<wgt id='1552'> +3.9184407E-01 </wgt>
<wgt id='1553'> +3.9336695E-01 </wgt>
<wgt id='1554'> +3.9395893E-01 </wgt>
<wgt id='1555'> +3.9027972E-01 </wgt>
<wgt id='1556'> +3.9338596E-01 </wgt>
<wgt id='1557'> +3.9264180E-01 </wgt>
<wgt id='1558'> +3.9008596E-01 </wgt>
<wgt id='1559'> +3.9498359E-01 </wgt>
<wgt id='1560'> +3.9524310E-01 </wgt>
<wgt id='1561'> +3.9171370E-01 </wgt>
<wgt id='1562'> +3.9072470E-01 </wgt>
<wgt id='1563'> +3.9444972E-01 </wgt>
<wgt id='1564'> +3.9279732E-01 </wgt>
<wgt id='1565'> +3.9000898E-01 </wgt>
<wgt id='1566'> +3.9424694E-01 </wgt>
<wgt id='1567'> +3.9217353E-01 </wgt>
<wgt id='1568'> +3.9679071E-01 </wgt>
<wgt id='1569'> +3.9588635E-01 </wgt>
<wgt id='1570'> +3.9495825E-01 </wgt>
<wgt id='1571'> +3.9404930E-01 </wgt>
<wgt id='1572'> +3.9310478E-01 </wgt>
<wgt id='1573'> +3.9109914E-01 </wgt>
<wgt id='1574'> +3.8991908E-01 </wgt>
<wgt id='1575'> +3.8891828E-01 </wgt>
<wgt id='1576'> +3.9217353E-01 </wgt>
<wgt id='1577'> +3.9242435E-01 </wgt>
<wgt id='1578'> +3.9229405E-01 </wgt>
<wgt id='1579'> +3.9207949E-01 </wgt>
<wgt id='1580'> +3.9203442E-01 </wgt>
<wgt id='1581'> +3.9496260E-01 </wgt>
<wgt id='1582'> +3.9557106E-01 </wgt>
<wgt id='1583'> +3.9726149E-01 </wgt>
<wgt id='1584'> +3.9364720E-01 </wgt>
<wgt id='1585'> +3.9657546E-01 </wgt>
<wgt id='1586'> +3.9144696E-01 </wgt>
<wgt id='1587'> +3.9202686E-01 </wgt>
<wgt id='1588'> +3.9874037E-01 </wgt>
<wgt id='1589'> +3.9464764E-01 </wgt>
<wgt id='1590'> +3.9668644E-01 </wgt>
<wgt id='1591'> +3.9418792E-01 </wgt>
<wgt id='1592'> +3.9045387E-01 </wgt>
<wgt id='1593'> +3.9609042E-01 </wgt>
<wgt id='1594'> +3.9339654E-01 </wgt>
<wgt id='1595'> +3.9431049E-01 </wgt>
<wgt id='1596'> +3.9782996E-01 </wgt>
<wgt id='1597'> +3.9621119E-01 </wgt>
<wgt id='1598'> +3.9636719E-01 </wgt>
<wgt id='1599'> +3.9484233E-01 </wgt>
<wgt id='1600'> +3.9625372E-01 </wgt>
<wgt id='1601'> +3.9378654E-01 </wgt>
<wgt id='1602'> +3.9595198E-01 </wgt>
<wgt id='1603'> +3.9562777E-01 </wgt>
<wgt id='1604'> +3.9488048E-01 </wgt>
<wgt id='1605'> +3.9437927E-01 </wgt>
<wgt id='1606'> +3.9544799E-01 </wgt>
<wgt id='1607'> +3.9564555E-01 </wgt>
<wgt id='1608'> +3.9484760E-01 </wgt>
<wgt id='1609'> +3.9587157E-01 </wgt>
<wgt id='1610'> +3.9475779E-01 </wgt>
<wgt id='1611'> +3.9788179E-01 </wgt>
<wgt id='1612'> +3.9242804E-01 </wgt>
<wgt id='1613'> +3.9233642E-01 </wgt>
<wgt id='1614'> +3.9269403E-01 </wgt>
<wgt id='1615'> +3.9263571E-01 </wgt>
<wgt id='1616'> +3.9231572E-01 </wgt>
<wgt id='1617'> +3.9241405E-01 </wgt>
<wgt id='1618'> +3.9309704E-01 </wgt>
<wgt id='1619'> +3.9224259E-01 </wgt>
<wgt id='1620'> +3.9248183E-01 </wgt>
<wgt id='1621'> +3.9231597E-01 </wgt>
<wgt id='1622'> +3.9311792E-01 </wgt>
<wgt id='1623'> +3.9149455E-01 </wgt>
<wgt id='1624'> +3.9090927E-01 </wgt>
<wgt id='1625'> +3.9106062E-01 </wgt>
<wgt id='1626'> +3.9268589E-01 </wgt>
<wgt id='1627'> +3.9139711E-01 </wgt>
<wgt id='1628'> +3.9274516E-01 </wgt>
<wgt id='1629'> +3.9281899E-01 </wgt>
<wgt id='1630'> +3.9162496E-01 </wgt>
<wgt id='1631'> +3.9299565E-01 </wgt>
<wgt id='1632'> +3.9164062E-01 </wgt>
<wgt id='1633'> +3.9284554E-01 </wgt>
<wgt id='1634'> +3.9228920E-01 </wgt>
<wgt id='1635'> +3.9152540E-01 </wgt>
<wgt id='1636'> +3.9154232E-01 </wgt>
<wgt id='1637'> +3.9252442E-01 </wgt>
<wgt id='1638'> +3.9222726E-01 </wgt>
<wgt id='1639'> +3.9318849E-01 </wgt>
<wgt id='1640'> +3.9274050E-01 </wgt>
<wgt id='1641'> +3.9026606E-01 </wgt>
<wgt id='1642'> +3.9138160E-01 </wgt>
<wgt id='1643'> +3.9234488E-01 </wgt>
<wgt id='1644'> +3.9130480E-01 </wgt>
<wgt id='1645'> +3.9186125E-01 </wgt>
<wgt id='1646'> +3.9394892E-01 </wgt>
<wgt id='1647'> +3.9164442E-01 </wgt>
<wgt id='1648'> +3.9187051E-01 </wgt>
<wgt id='1649'> +3.9358135E-01 </wgt>
<wgt id='1650'> +3.9183748E-01 </wgt>
<wgt id='1651'> +3.9157144E-01 </wgt>
<wgt id='1652'> +3.9175667E-01 </wgt>
<wgt id='1653'> +3.9207045E-01 </wgt>
<wgt id='1654'> +3.9219482E-01 </wgt>
<wgt id='1655'> +3.9283441E-01 </wgt>
<wgt id='1656'> +3.9265951E-01 </wgt>
<wgt id='1657'> +3.9198464E-01 </wgt>
<wgt id='1658'> +3.9315137E-01 </wgt>
<wgt id='1659'> +3.9333731E-01 </wgt>
<wgt id='1660'> +3.9246146E-01 </wgt>
<wgt id='1661'> +3.9256113E-01 </wgt>
<wgt id='1662'> +3.9294309E-01 </wgt>
<wgt id='1663'> +3.9363426E-01 </wgt>
<wgt id='1664'> +3.9276882E-01 </wgt>
<wgt id='1665'> +3.9294367E-01 </wgt>
<wgt id='1666'> +3.9315627E-01 </wgt>
<wgt id='1667'> +3.9237159E-01 </wgt>
<wgt id='1668'> +3.9205115E-01 </wgt>
<wgt id='1669'> +3.9239796E-01 </wgt>
<wgt id='1670'> +3.9181825E-01 </wgt>
<wgt id='1671'> +3.9247141E-01 </wgt>
<wgt id='1672'> +3.9254696E-01 </wgt>
<wgt id='1673'> +3.9250011E-01 </wgt>
<wgt id='1674'> +3.9250766E-01 </wgt>
<wgt id='1675'> +3.9214861E-01 </wgt>
<wgt id='1676'> +3.9163094E-01 </wgt>
<wgt id='1677'> +3.9260401E-01 </wgt>
<wgt id='1678'> +3.9271709E-01 </wgt>
<wgt id='1679'> +3.9298407E-01 </wgt>
<wgt id='1680'> +3.9328484E-01 </wgt>
<wgt id='1681'> +3.9233333E-01 </wgt>
<wgt id='1682'> +3.9231145E-01 </wgt>
<wgt id='1683'> +3.9219215E-01 </wgt>
<wgt id='1684'> +3.9242897E-01 </wgt>
<wgt id='1685'> +3.9192670E-01 </wgt>
<wgt id='1686'> +3.9232283E-01 </wgt>
<wgt id='1687'> +3.9215930E-01 </wgt>
<wgt id='1688'> +3.9221783E-01 </wgt>
<wgt id='1689'> +3.9280124E-01 </wgt>
<wgt id='1690'> +3.9256587E-01 </wgt>
<wgt id='1691'> +3.9290644E-01 </wgt>
<wgt id='1692'> +3.9229211E-01 </wgt>
<wgt id='1693'> +3.9284500E-01 </wgt>
<wgt id='1694'> +3.9288107E-01 </wgt>
<wgt id='1695'> +3.9269533E-01 </wgt>
<wgt id='1696'> +3.9229237E-01 </wgt>
<wgt id='1697'> +3.9246019E-01 </wgt>
<wgt id='1698'> +3.9225061E-01 </wgt>
<wgt id='1699'> +3.9237379E-01 </wgt>
<wgt id='1700'> +3.9250714E-01 </wgt>
<wgt id='1701'> +3.9239796E-01 </wgt>
<wgt id='1702'> +3.9233201E-01 </wgt>
<wgt id='1703'> +3.9249022E-01 </wgt>
<wgt id='1704'> +3.9258694E-01 </wgt>
<wgt id='1705'> +3.9229721E-01 </wgt>
<wgt id='1706'> +3.9227846E-01 </wgt>
<wgt id='1707'> +3.9233271E-01 </wgt>
<wgt id='1708'> +3.9211293E-01 </wgt>
<wgt id='1709'> +3.9250866E-01 </wgt>
<wgt id='1710'> +3.9221062E-01 </wgt>
<wgt id='1711'> +3.9240987E-01 </wgt>
<wgt id='1712'> +3.9217072E-01 </wgt>
<wgt id='1713'> +3.8540532E-01 </wgt>
<wgt id='1714'> +3.9933706E-01 </wgt>
<wgt id='1715'> +3.8149151E-01 </wgt>
<wgt id='1716'> +3.7695461E-01 </wgt>
<wgt id='1717'> +3.8808318E-01 </wgt>
<wgt id='1718'> +3.8206933E-01 </wgt>
<wgt id='1719'> +3.7572363E-01 </wgt>
<wgt id='1720'> +3.9560354E-01 </wgt>
<wgt id='1721'> +3.8245070E-01 </wgt>
<wgt id='1722'> +3.7863146E-01 </wgt>
<wgt id='1723'> +3.8183318E-01 </wgt>
<wgt id='1724'> +3.8363296E-01 </wgt>
<wgt id='1725'> +3.8343006E-01 </wgt>
<wgt id='1726'> +3.8069341E-01 </wgt>
<wgt id='1727'> +3.8440732E-01 </wgt>
<wgt id='1728'> +3.8146411E-01 </wgt>
<wgt id='1729'> +3.8214878E-01 </wgt>
<wgt id='1730'> +3.7441480E-01 </wgt>
<wgt id='1731'> +3.6164716E-01 </wgt>
<wgt id='1732'> +3.7448434E-01 </wgt>
<wgt id='1733'> +3.8073069E-01 </wgt>
<wgt id='1734'> +3.9314830E-01 </wgt>
<wgt id='1735'> +3.7210339E-01 </wgt>
<wgt id='1736'> +3.9011959E-01 </wgt>
<wgt id='1737'> +3.8112710E-01 </wgt>
<wgt id='1738'> +3.8654594E-01 </wgt>
<wgt id='1739'> +3.8254368E-01 </wgt>
<wgt id='1740'> +3.8644682E-01 </wgt>
<wgt id='1741'> +3.7644962E-01 </wgt>
<wgt id='1742'> +3.8316530E-01 </wgt>
<wgt id='1743'> +3.7127672E-01 </wgt>
<wgt id='1744'> +3.8835892E-01 </wgt>
<wgt id='1745'> +3.7567851E-01 </wgt>
<wgt id='1746'> +3.8378825E-01 </wgt>
<wgt id='1747'> +3.8810164E-01 </wgt>
<wgt id='1748'> +3.7786316E-01 </wgt>
<wgt id='1749'> +3.8864778E-01 </wgt>
<wgt id='1750'> +3.7469312E-01 </wgt>
<wgt id='1751'> +3.8033376E-01 </wgt>
<wgt id='1752'> +3.7209773E-01 </wgt>
<wgt id='1753'> +3.8314089E-01 </wgt>
<wgt id='1754'> +3.8473093E-01 </wgt>
<wgt id='1755'> +3.8579470E-01 </wgt>
<wgt id='1756'> +3.8242987E-01 </wgt>
<wgt id='1757'> +3.7728586E-01 </wgt>
<wgt id='1758'> +3.8361550E-01 </wgt>
<wgt id='1759'> +3.8531266E-01 </wgt>
<wgt id='1760'> +3.7920565E-01 </wgt>
<wgt id='1761'> +3.7947461E-01 </wgt>
<wgt id='1762'> +3.8440732E-01 </wgt>
<wgt id='1763'> +3.8428755E-01 </wgt>
<wgt id='1764'> +3.8983097E-01 </wgt>
<wgt id='1765'> +3.8788523E-01 </wgt>
<wgt id='1766'> +3.8957790E-01 </wgt>
<wgt id='1767'> +3.7564715E-01 </wgt>
<wgt id='1768'> +3.6867687E-01 </wgt>
<wgt id='1769'> +3.8710004E-01 </wgt>
<wgt id='1770'> +3.7755015E-01 </wgt>
<wgt id='1771'> +3.7288553E-01 </wgt>
<wgt id='1772'> +3.8127400E-01 </wgt>
<wgt id='1773'> +3.8697605E-01 </wgt>
<wgt id='1774'> +3.7350222E-01 </wgt>
<wgt id='1775'> +3.8150737E-01 </wgt>
<wgt id='1776'> +3.8815482E-01 </wgt>
<wgt id='1777'> +3.7782613E-01 </wgt>
<wgt id='1778'> +3.8506095E-01 </wgt>
<wgt id='1779'> +3.8038417E-01 </wgt>
<wgt id='1780'> +3.9227226E-01 </wgt>
<wgt id='1781'> +3.8731867E-01 </wgt>
<wgt id='1782'> +3.7548344E-01 </wgt>
<wgt id='1783'> +3.7917975E-01 </wgt>
<wgt id='1784'> +3.7804756E-01 </wgt>
<wgt id='1785'> +3.8573484E-01 </wgt>
<wgt id='1786'> +3.8076141E-01 </wgt>
<wgt id='1787'> +3.8501778E-01 </wgt>
<wgt id='1788'> +3.8026504E-01 </wgt>
<wgt id='1789'> +3.8598866E-01 </wgt>
<wgt id='1790'> +3.8308663E-01 </wgt>
<wgt id='1791'> +3.7878024E-01 </wgt>
<wgt id='1792'> +3.8227685E-01 </wgt>
<wgt id='1793'> +3.8229862E-01 </wgt>
<wgt id='1794'> +3.6871061E-01 </wgt>
<wgt id='1795'> +3.6899400E-01 </wgt>
<wgt id='1796'> +3.8409557E-01 </wgt>
<wgt id='1797'> +3.9089244E-01 </wgt>
<wgt id='1798'> +3.7660258E-01 </wgt>
<wgt id='1799'> +3.8508526E-01 </wgt>
<wgt id='1800'> +3.8363278E-01 </wgt>
<wgt id='1801'> +3.7627788E-01 </wgt>
<wgt id='1802'> +3.7910963E-01 </wgt>
<wgt id='1803'> +3.8356804E-01 </wgt>
<wgt id='1804'> +3.8798748E-01 </wgt>
<wgt id='1805'> +3.8214909E-01 </wgt>
<wgt id='1806'> +3.7947393E-01 </wgt>
<wgt id='1807'> +3.8016788E-01 </wgt>
<wgt id='1808'> +3.7908075E-01 </wgt>
<wgt id='1809'> +3.8280476E-01 </wgt>
<wgt id='1810'> +3.7873020E-01 </wgt>
<wgt id='1811'> +3.8122021E-01 </wgt>
<wgt id='1812'> +3.7792904E-01 </wgt>
<wgt id='1813'> +3.8465990E-01 </wgt>
<wgt id='1814'> +3.7446251E-01 </wgt>
<wgt id='1815'> +3.8866832E-01 </wgt>
<wgt id='1816'> +4.0571506E-01 </wgt>
<wgt id='1817'> +4.1642876E-01 </wgt>
<wgt id='1818'> +4.0644723E-01 </wgt>
<wgt id='1819'> +4.1871634E-01 </wgt>
<wgt id='1820'> +4.0825341E-01 </wgt>
<wgt id='1821'> +4.2463651E-01 </wgt>
<wgt id='1822'> +4.0910022E-01 </wgt>
<wgt id='1823'> +4.0486894E-01 </wgt>
<wgt id='1824'> +4.0094757E-01 </wgt>
<wgt id='1825'> +4.0704510E-01 </wgt>
<wgt id='1826'> +4.0527296E-01 </wgt>
<wgt id='1827'> +3.9977973E-01 </wgt>
<wgt id='1828'> +4.0885418E-01 </wgt>
<wgt id='1829'> +4.0232512E-01 </wgt>
<wgt id='1830'> +4.0740110E-01 </wgt>
<wgt id='1831'> +4.1441931E-01 </wgt>
<wgt id='1832'> +4.0363316E-01 </wgt>
<wgt id='1833'> +4.0540263E-01 </wgt>
<wgt id='1834'> +4.0212689E-01 </wgt>
<wgt id='1835'> +4.0582541E-01 </wgt>
<wgt id='1836'> +4.1684777E-01 </wgt>
<wgt id='1837'> +4.0861800E-01 </wgt>
<wgt id='1838'> +4.0143401E-01 </wgt>
<wgt id='1839'> +4.1713637E-01 </wgt>
<wgt id='1840'> +4.0832317E-01 </wgt>
<wgt id='1841'> +4.0266895E-01 </wgt>
<wgt id='1842'> +4.1016178E-01 </wgt>
<wgt id='1843'> +3.9903549E-01 </wgt>
<wgt id='1844'> +4.0942776E-01 </wgt>
<wgt id='1845'> +4.1410864E-01 </wgt>
<wgt id='1846'> +4.1169867E-01 </wgt>
<wgt id='1847'> +4.0211828E-01 </wgt>
<wgt id='1848'> +4.0628197E-01 </wgt>
<wgt id='1849'> +4.0064590E-01 </wgt>
<wgt id='1850'> +4.0701394E-01 </wgt>
<wgt id='1851'> +4.0487081E-01 </wgt>
<wgt id='1852'> +3.9853315E-01 </wgt>
<wgt id='1853'> +4.0019757E-01 </wgt>
<wgt id='1854'> +4.0420564E-01 </wgt>
<wgt id='1855'> +4.0888723E-01 </wgt>
<wgt id='1856'> +4.0259990E-01 </wgt>
<wgt id='1857'> +4.1322339E-01 </wgt>
<wgt id='1858'> +4.0216337E-01 </wgt>
<wgt id='1859'> +4.0249662E-01 </wgt>
<wgt id='1860'> +4.0877150E-01 </wgt>
<wgt id='1861'> +4.0336406E-01 </wgt>
<wgt id='1862'> +4.0824982E-01 </wgt>
<wgt id='1863'> +4.0096009E-01 </wgt>
<wgt id='1864'> +4.0405394E-01 </wgt>
<wgt id='1865'> +4.0863531E-01 </wgt>
<wgt id='1866'> +4.0485894E-01 </wgt>
<wgt id='1867'> +4.0671715E-01 </wgt>
<wgt id='1868'> +4.0392426E-01 </wgt>
<wgt id='1869'> +4.1472658E-01 </wgt>
<wgt id='1870'> +3.9878232E-01 </wgt>
<wgt id='1871'> +3.9923613E-01 </wgt>
<wgt id='1872'> +4.0281273E-01 </wgt>
<wgt id='1873'> +4.0416180E-01 </wgt>
<wgt id='1874'> +4.0653523E-01 </wgt>
<wgt id='1875'> +4.0856098E-01 </wgt>
<wgt id='1876'> +4.0379731E-01 </wgt>
<wgt id='1877'> +4.0503812E-01 </wgt>
<wgt id='1878'> +4.0964668E-01 </wgt>
<wgt id='1879'> +4.0531139E-01 </wgt>
<wgt id='1880'> +3.9441067E-01 </wgt>
<wgt id='1881'> +3.9925087E-01 </wgt>
<wgt id='1882'> +4.0025039E-01 </wgt>
<wgt id='1883'> +4.2489294E-01 </wgt>
<wgt id='1884'> +4.0081403E-01 </wgt>
<wgt id='1885'> +3.9516978E-01 </wgt>
<wgt id='1886'> +3.9117651E-01 </wgt>
<wgt id='1887'> +4.0230022E-01 </wgt>
<wgt id='1888'> +4.1209144E-01 </wgt>
<wgt id='1889'> +4.0950230E-01 </wgt>
<wgt id='1890'> +4.1562848E-01 </wgt>
<wgt id='1891'> +4.0828746E-01 </wgt>
<wgt id='1892'> +4.0938103E-01 </wgt>
<wgt id='1893'> +3.9935176E-01 </wgt>
<wgt id='1894'> +4.0466759E-01 </wgt>
<wgt id='1895'> +4.1017738E-01 </wgt>
<wgt id='1896'> +3.9765604E-01 </wgt>
<wgt id='1897'> +4.0587658E-01 </wgt>
<wgt id='1898'> +4.0487102E-01 </wgt>
<wgt id='1899'> +4.0676627E-01 </wgt>
<wgt id='1900'> +4.0399516E-01 </wgt>
<wgt id='1901'> +4.0522044E-01 </wgt>
<wgt id='1902'> +3.9843653E-01 </wgt>
<wgt id='1903'> +4.0695712E-01 </wgt>
<wgt id='1904'> +4.0881063E-01 </wgt>
<wgt id='1905'> +4.0505522E-01 </wgt>
<wgt id='1906'> +4.0013623E-01 </wgt>
<wgt id='1907'> +4.0292141E-01 </wgt>
<wgt id='1908'> +4.0309553E-01 </wgt>
<wgt id='1909'> +4.0472592E-01 </wgt>
<wgt id='1910'> +4.1246095E-01 </wgt>
<wgt id='1911'> +3.9573755E-01 </wgt>
<wgt id='1912'> +4.0164669E-01 </wgt>
<wgt id='1913'> +4.0403126E-01 </wgt>
<wgt id='1914'> +4.0561482E-01 </wgt>
<wgt id='1915'> +4.0726463E-01 </wgt>
<wgt id='1916'> +3.9775922E-01 </wgt>
<wgt id='1917'> +4.0951683E-01 </wgt>
<wgt id='1918'> +4.1764061E-01 </wgt>
<wgt id='1919'> +4.0571506E-01 </wgt>
<wgt id='1920'> +4.1642876E-01 </wgt>
<wgt id='1921'> +4.0644723E-01 </wgt>
<wgt id='1922'> +4.1871634E-01 </wgt>
<wgt id='1923'> +4.0825341E-01 </wgt>
<wgt id='1924'> +4.2463651E-01 </wgt>
<wgt id='1925'> +4.0910022E-01 </wgt>
<wgt id='1926'> +4.0486894E-01 </wgt>
<wgt id='1927'> +4.0094757E-01 </wgt>
<wgt id='1928'> +4.0704510E-01 </wgt>
<wgt id='1929'> +4.0527296E-01 </wgt>
<wgt id='1930'> +3.9977973E-01 </wgt>
<wgt id='1931'> +4.0885418E-01 </wgt>
<wgt id='1932'> +4.0232512E-01 </wgt>
<wgt id='1933'> +4.0740110E-01 </wgt>
<wgt id='1934'> +4.1441931E-01 </wgt>
<wgt id='1935'> +4.0363316E-01 </wgt>
<wgt id='1936'> +4.0540263E-01 </wgt>
<wgt id='1937'> +4.0212689E-01 </wgt>
<wgt id='1938'> +4.0582541E-01 </wgt>
<wgt id='1939'> +4.1684777E-01 </wgt>
<wgt id='1940'> +4.0861800E-01 </wgt>
<wgt id='1941'> +4.0143401E-01 </wgt>
<wgt id='1942'> +4.1713637E-01 </wgt>
<wgt id='1943'> +4.0832317E-01 </wgt>
<wgt id='1944'> +4.0266895E-01 </wgt>
<wgt id='1945'> +4.1016178E-01 </wgt>
<wgt id='1946'> +3.9903549E-01 </wgt>
<wgt id='1947'> +4.0942776E-01 </wgt>
<wgt id='1948'> +4.1410864E-01 </wgt>
<wgt id='1949'> +4.1169867E-01 </wgt>
<wgt id='1950'> +4.0211828E-01 </wgt>
<wgt id='1951'> +4.0628197E-01 </wgt>
<wgt id='1952'> +4.0064590E-01 </wgt>
<wgt id='1953'> +4.0701394E-01 </wgt>
<wgt id='1954'> +4.0487081E-01 </wgt>
<wgt id='1955'> +3.9853315E-01 </wgt>
<wgt id='1956'> +4.0019757E-01 </wgt>
<wgt id='1957'> +4.0420564E-01 </wgt>
<wgt id='1958'> +4.0888723E-01 </wgt>
<wgt id='1959'> +4.0259990E-01 </wgt>
<wgt id='1960'> +4.1322339E-01 </wgt>
<wgt id='1961'> +4.0216337E-01 </wgt>
<wgt id='1962'> +4.0249662E-01 </wgt>
<wgt id='1963'> +4.0877150E-01 </wgt>
<wgt id='1964'> +4.0336406E-01 </wgt>
<wgt id='1965'> +4.0824982E-01 </wgt>
<wgt id='1966'> +4.0096009E-01 </wgt>
<wgt id='1967'> +4.0405394E-01 </wgt>
<wgt id='1968'> +4.0863531E-01 </wgt>
<wgt id='1969'> +4.0485894E-01 </wgt>
<wgt id='1970'> +4.0671715E-01 </wgt>
<wgt id='1971'> +4.0392426E-01 </wgt>
<wgt id='1972'> +4.1472658E-01 </wgt>
<wgt id='1973'> +3.9878232E-01 </wgt>
<wgt id='1974'> +3.9923613E-01 </wgt>
<wgt id='1975'> +4.0281273E-01 </wgt>
<wgt id='1976'> +4.0416180E-01 </wgt>
<wgt id='1977'> +4.0653523E-01 </wgt>
<wgt id='1978'> +4.0856098E-01 </wgt>
<wgt id='1979'> +4.0379731E-01 </wgt>
<wgt id='1980'> +4.0503812E-01 </wgt>
<wgt id='1981'> +4.0964668E-01 </wgt>
<wgt id='1982'> +4.0531139E-01 </wgt>
<wgt id='1983'> +3.9441067E-01 </wgt>
<wgt id='1984'> +3.9925087E-01 </wgt>
<wgt id='1985'> +4.0025039E-01 </wgt>
<wgt id='1986'> +4.2489294E-01 </wgt>
<wgt id='1987'> +4.0081403E-01 </wgt>
<wgt id='1988'> +3.9516978E-01 </wgt>
<wgt id='1989'> +3.9117651E-01 </wgt>
<wgt id='1990'> +4.0230022E-01 </wgt>
<wgt id='1991'> +4.1209144E-01 </wgt>
<wgt id='1992'> +4.0950230E-01 </wgt>
<wgt id='1993'> +4.1562848E-01 </wgt>
<wgt id='1994'> +4.0828746E-01 </wgt>
<wgt id='1995'> +4.0938103E-01 </wgt>
<wgt id='1996'> +3.9935176E-01 </wgt>
<wgt id='1997'> +4.0466759E-01 </wgt>
<wgt id='1998'> +4.1017738E-01 </wgt>
<wgt id='1999'> +3.9765604E-01 </wgt>
<wgt id='2000'> +4.0587658E-01 </wgt>
<wgt id='2001'> +4.0487102E-01 </wgt>
<wgt id='2002'> +4.0676627E-01 </wgt>
<wgt id='2003'> +4.0399516E-01 </wgt>
<wgt id='2004'> +4.0522044E-01 </wgt>
<wgt id='2005'> +3.9843653E-01 </wgt>
<wgt id='2006'> +4.0695712E-01 </wgt>
<wgt id='2007'> +4.0881063E-01 </wgt>
<wgt id='2008'> +4.0505522E-01 </wgt>
<wgt id='2009'> +4.0013623E-01 </wgt>
<wgt id='2010'> +4.0292141E-01 </wgt>
<wgt id='2011'> +4.0309553E-01 </wgt>
<wgt id='2012'> +4.0472592E-01 </wgt>
<wgt id='2013'> +4.1246095E-01 </wgt>
<wgt id='2014'> +3.9573755E-01 </wgt>
<wgt id='2015'> +4.0164669E-01 </wgt>
<wgt id='2016'> +4.0403126E-01 </wgt>
<wgt id='2017'> +4.0561482E-01 </wgt>
<wgt id='2018'> +4.0726463E-01 </wgt>
<wgt id='2019'> +3.9775922E-01 </wgt>
<wgt id='2020'> +4.0376614E-01 </wgt>
<wgt id='2021'> +4.0650765E-01 </wgt>
<wgt id='2022'> +4.0249837E-01 </wgt>
</rwgt>
</event>
<event>
13      1 +3.9556008E-01 1.38835500e+02 7.81860800e-03 1.09624700e-01
       21 -1    0    0  502  503 +0.0000000000e+00 +0.0000000000e+00 +1.8891385352e+02 1.8891385352e+02 0.0000000000e+00 0.0000e+00 -1.0000e+00
        2 -1    0    0  501    0 +0.0000000000e+00 +0.0000000000e+00 -1.3764476894e+03 1.3764476894e+03 2.5500000000e-03 0.0000e+00 -1.0000e+00
  8000001  2    1    2  502    0 +6.1856835626e+01 -9.5392376506e+01 -5.5973947008e+02 8.2839273814e+02 6.0000023386e+02 0.0000e+00 0.0000e+00
        1  1    1    2  501    0 -5.4013336758e+01 +6.4922505773e+01 -6.7488144338e+02 6.8014508374e+02 5.0400000000e-03 0.0000e+00 -1.0000e+00
       -5  1    1    2    0  503 -7.8434988684e+00 +3.0469870732e+01 +4.7087077573e+01 5.6823721033e+01 4.6700000000e+00 0.0000e+00 1.0000e+00
        6  2    3    3  502    0 +1.7159887938e+02 +1.2768185527e+02 -4.7492605952e+02 5.5045146775e+02 1.7802591036e+02 0.0000e+00 0.0000e+00
        5  1    6    6  502    0 +1.1635451127e+02 +1.3465408490e+02 -2.6702972779e+02 3.2093111301e+02 4.6700000000e+00 0.0000e+00 -1.0000e+00
       24  2    6    6    0    0 +5.5244368113e+01 -6.9722296231e+00 -2.0789633173e+02 2.2952035474e+02 7.9738047991e+01 0.0000e+00 0.0000e+00
        4  1    8    8  504    0 +5.4714186445e+01 -1.5162924640e+01 -2.1260366224e+02 2.2005791642e+02 1.2700000000e+00 0.0000e+00 -1.0000e+00
       -3  1    8    8    0  504 +5.3018166798e-01 +8.1906950167e+00 +4.7073305054e+00 9.4624383193e+00 1.0100000000e-01 0.0000e+00 1.0000e+00
       23  2    3    3    0    0 -1.0974204376e+02 -2.2307423178e+02 -8.4813410554e+01 2.7794127040e+02 9.0843855752e+01 0.0000e+00 0.0000e+00
        1  1   11   11  505    0 +1.3928486015e+00 -9.5128687562e+01 -3.3635203969e+01 1.0090953471e+02 5.0400000000e-03 0.0000e+00 -1.0000e+00
       -1  1   11   11    0  505 -1.1113489236e+02 -1.2794554422e+02 -5.1178206586e+01 1.7703173568e+02 5.0400000000e-03 0.0000e+00 1.0000e+00
<mgrwt>
<rscale>  1 0.10863268e+03</rscale>
<asrwt>0</asrwt>
<pdfrwt beam="1">  1       21 0.29063670e-01 0.13883554e+03</pdfrwt>
<pdfrwt beam="2">  1        2 0.21176118e+00 0.85000271e+02</pdfrwt>
<totfact> 0.29291850e+03</totfact>
</mgrwt>
<rwgt>
<wgt id='1001'> +3.9556008E-01 </wgt>
<wgt id='1002'> +2.6554841E-01 </wgt>
<wgt id='1003'> +2.6552323E-01 </wgt>
<wgt id='1004'> +3.0710177E-01 </wgt>
<wgt id='1005'> +2.4089341E-01 </wgt>
<wgt id='1006'> +3.5755006E-01 </wgt>
<wgt id='1007'> +2.4520462E-01 </wgt>
<wgt id='1008'> +2.4518248E-01 </wgt>
<wgt id='1009'> +2.8152500E-01 </wgt>
<wgt id='1010'> +2.2342822E-01 </wgt>
<wgt id='1011'> +4.4294618E-01 </wgt>
<wgt id='1012'> +2.8967526E-01 </wgt>
<wgt id='1013'> +2.8964624E-01 </wgt>
<wgt id='1014'> +3.3794239E-01 </wgt>
<wgt id='1015'> +2.6139518E-01 </wgt>
<wgt id='1016'> +3.7185492E-01 </wgt>
<wgt id='1017'> +2.5095795E-01 </wgt>
<wgt id='1018'> +2.5093431E-01 </wgt>
<wgt id='1019'> +2.8964624E-01 </wgt>
<wgt id='1020'> +2.2788451E-01 </wgt>
<wgt id='1021'> +3.3612276E-01 </wgt>
<wgt id='1022'> +2.3173194E-01 </wgt>
<wgt id='1023'> +2.3171116E-01 </wgt>
<wgt id='1024'> +2.6552323E-01 </wgt>
<wgt id='1025'> +2.1136249E-01 </wgt>
<wgt id='1026'> +4.1640125E-01 </wgt>
<wgt id='1027'> +2.7375917E-01 </wgt>
<wgt id='1028'> +2.7373189E-01 </wgt>
<wgt id='1029'> +3.1873388E-01 </wgt>
<wgt id='1030'> +2.4727912E-01 </wgt>
<wgt id='1031'> +4.2094979E-01 </wgt>
<wgt id='1032'> +2.8155214E-01 </wgt>
<wgt id='1033'> +2.8152500E-01 </wgt>
<wgt id='1034'> +3.2579768E-01 </wgt>
<wgt id='1035'> +2.5503325E-01 </wgt>
<wgt id='1036'> +3.8050002E-01 </wgt>
<wgt id='1037'> +2.5998230E-01 </wgt>
<wgt id='1038'> +2.5995840E-01 </wgt>
<wgt id='1039'> +2.9866383E-01 </wgt>
<wgt id='1040'> +2.3654289E-01 </wgt>
<wgt id='1041'> +4.7137744E-01 </wgt>
<wgt id='1042'> +3.0713305E-01 </wgt>
<wgt id='1043'> +3.0710177E-01 </wgt>
<wgt id='1044'> +3.5851583E-01 </wgt>
<wgt id='1045'> +2.7673842E-01 </wgt>
<wgt id='1046'> +3.9556008E-01 </wgt>
<wgt id='1047'> +3.9556008E-01 </wgt>
<wgt id='1048'> +3.9556008E-01 </wgt>
<wgt id='1049'> +3.9601074E-01 </wgt>
<wgt id='1050'> +3.9518136E-01 </wgt>
<wgt id='1051'> +3.9612657E-01 </wgt>
<wgt id='1052'> +3.9485425E-01 </wgt>
<wgt id='1053'> +3.9763737E-01 </wgt>
<wgt id='1054'> +3.9542896E-01 </wgt>
<wgt id='1055'> +3.9607870E-01 </wgt>
<wgt id='1056'> +3.9658100E-01 </wgt>
<wgt id='1057'> +3.9543743E-01 </wgt>
<wgt id='1058'> +3.9545393E-01 </wgt>
<wgt id='1059'> +3.9416737E-01 </wgt>
<wgt id='1060'> +3.9534347E-01 </wgt>
<wgt id='1061'> +3.9552197E-01 </wgt>
<wgt id='1062'> +3.9604506E-01 </wgt>
<wgt id='1063'> +3.9518103E-01 </wgt>
<wgt id='1064'> +3.9562257E-01 </wgt>
<wgt id='1065'> +3.9540878E-01 </wgt>
<wgt id='1066'> +3.9510181E-01 </wgt>
<wgt id='1067'> +3.9698243E-01 </wgt>
<wgt id='1068'> +3.9380307E-01 </wgt>
<wgt id='1069'> +3.9567583E-01 </wgt>
<wgt id='1070'> +3.9544461E-01 </wgt>
<wgt id='1071'> +3.9525557E-01 </wgt>
<wgt id='1072'> +3.9644013E-01 </wgt>
<wgt id='1073'> +3.9526569E-01 </wgt>
<wgt id='1074'> +3.9576930E-01 </wgt>
<wgt id='1075'> +3.9398694E-01 </wgt>
<wgt id='1076'> +3.9654383E-01 </wgt>
<wgt id='1077'> +3.9721809E-01 </wgt>
<wgt id='1078'> +3.9546305E-01 </wgt>
<wgt id='1079'> +3.9772448E-01 </wgt>
<wgt id='1080'> +3.9646171E-01 </wgt>
<wgt id='1081'> +3.9610666E-01 </wgt>
<wgt id='1082'> +3.9627500E-01 </wgt>
<wgt id='1083'> +3.9515277E-01 </wgt>
<wgt id='1084'> +3.9476267E-01 </wgt>
<wgt id='1085'> +3.9678223E-01 </wgt>
<wgt id='1086'> +3.9485591E-01 </wgt>
<wgt id='1087'> +3.9567193E-01 </wgt>
<wgt id='1088'> +3.9623050E-01 </wgt>
<wgt id='1089'> +3.9606767E-01 </wgt>
<wgt id='1090'> +3.9564417E-01 </wgt>
<wgt id='1091'> +3.9507954E-01 </wgt>
<wgt id='1092'> +3.9461536E-01 </wgt>
<wgt id='1093'> +3.9552480E-01 </wgt>
<wgt id='1094'> +3.9546628E-01 </wgt>
<wgt id='1095'> +3.9482460E-01 </wgt>
<wgt id='1096'> +3.9468905E-01 </wgt>
<wgt id='1097'> +3.9538420E-01 </wgt>
<wgt id='1098'> +3.9544469E-01 </wgt>
<wgt id='1099'> +3.9542378E-01 </wgt>
<wgt id='1100'> +3.9561611E-01 </wgt>
<wgt id='1101'> +3.9530707E-01 </wgt>
<wgt id='1102'> +3.9580283E-01 </wgt>
<wgt id='1103'> +3.9593611E-01 </wgt>
<wgt id='1104'> +3.9575980E-01 </wgt>
<wgt id='1105'> +3.9599995E-01 </wgt>
<wgt id='1106'> +3.9576419E-01 </wgt>
<wgt id='1107'> +3.9557349E-01 </wgt>
<wgt id='1108'> +3.9571529E-01 </wgt>
<wgt id='1109'> +3.9576012E-01 </wgt>
<wgt id='1110'> +3.9550910E-01 </wgt>
<wgt id='1111'> +3.9533140E-01 </wgt>
<wgt id='1112'> +3.9573145E-01 </wgt>
<wgt id='1113'> +3.9561413E-01 </wgt>
<wgt id='1114'> +3.9481182E-01 </wgt>
<wgt id='1115'> +3.9584330E-01 </wgt>
<wgt id='1116'> +3.9549588E-01 </wgt>
<wgt id='1117'> +3.9568939E-01 </wgt>
<wgt id='1118'> +3.9541085E-01 </wgt>
<wgt id='1119'> +3.9566676E-01 </wgt>
<wgt id='1120'> +3.9545262E-01 </wgt>
<wgt id='1121'> +3.9609993E-01 </wgt>
<wgt id='1122'> +3.9544885E-01 </wgt>
<wgt id='1123'> +3.9566230E-01 </wgt>
<wgt id='1124'> +3.9551369E-01 </wgt>
<wgt id='1125'> +3.9549347E-01 </wgt>
<wgt id='1126'> +3.9541619E-01 </wgt>
<wgt id='1127'> +3.9596224E-01 </wgt>
<wgt id='1128'> +3.9549532E-01 </wgt>
<wgt id='1129'> +3.9565473E-01 </wgt>
<wgt id='1130'> +3.9571632E-01 </wgt>
<wgt id='1131'> +3.9581003E-01 </wgt>
<wgt id='1132'> +3.9546748E-01 </wgt>
<wgt id='1133'> +3.9573860E-01 </wgt>
<wgt id='1134'> +3.9545987E-01 </wgt>
<wgt id='1135'> +3.9577182E-01 </wgt>
<wgt id='1136'> +3.9564720E-01 </wgt>
<wgt id='1137'> +3.9564471E-01 </wgt>
<wgt id='1138'> +3.9575424E-01 </wgt>
<wgt id='1139'> +3.9552101E-01 </wgt>
<wgt id='1140'> +3.9577565E-01 </wgt>
<wgt id='1141'> +3.9557697E-01 </wgt>
<wgt id='1142'> +3.9561630E-01 </wgt>
<wgt id='1143'> +3.9578690E-01 </wgt>
<wgt id='1144'> +3.9543801E-01 </wgt>
<wgt id='1145'> +3.9545225E-01 </wgt>
<wgt id='1146'> +3.9549159E-01 </wgt>
<wgt id='1147'> +3.9577111E-01 </wgt>
<wgt id='1148'> +3.9556008E-01 </wgt>
<wgt id='1149'> +3.8901507E-01 </wgt>
<wgt id='1150'> +3.8752426E-01 </wgt>
<wgt id='1151'> +3.9030457E-01 </wgt>
<wgt id='1152'> +3.9381512E-01 </wgt>
<wgt id='1153'> +3.8561342E-01 </wgt>
<wgt id='1154'> +3.9054453E-01 </wgt>
<wgt id='1155'> +3.9075105E-01 </wgt>
<wgt id='1156'> +3.9396096E-01 </wgt>
<wgt id='1157'> +3.9379645E-01 </wgt>
<wgt id='1158'> +3.9296035E-01 </wgt>
<wgt id='1159'> +3.6901011E-01 </wgt>
<wgt id='1160'> +3.8982778E-01 </wgt>
<wgt id='1161'> +3.9113062E-01 </wgt>
<wgt id='1162'> +3.8200036E-01 </wgt>
<wgt id='1163'> +3.9389347E-01 </wgt>
<wgt id='1164'> +3.9754221E-01 </wgt>
<wgt id='1165'> +3.9005997E-01 </wgt>
<wgt id='1166'> +3.8949541E-01 </wgt>
<wgt id='1167'> +3.9245969E-01 </wgt>
<wgt id='1168'> +3.8758773E-01 </wgt>
<wgt id='1169'> +3.8480465E-01 </wgt>
<wgt id='1170'> +3.9022497E-01 </wgt>
<wgt id='1171'> +3.9092682E-01 </wgt>
<wgt id='1172'> +3.9167361E-01 </wgt>
<wgt id='1173'> +3.8379464E-01 </wgt>
<wgt id='1174'> +3.9386955E-01 </wgt>
<wgt id='1175'> +3.9740560E-01 </wgt>
<wgt id='1176'> +3.7273714E-01 </wgt>
<wgt id='1177'> +3.9365415E-01 </wgt>
<wgt id='1178'> +3.9019626E-01 </wgt>
<wgt id='1179'> +3.8653234E-01 </wgt>
<wgt id='1180'> +3.9041190E-01 </wgt>
<wgt id='1181'> +3.9102832E-01 </wgt>
<wgt id='1182'> +3.9240948E-01 </wgt>
<wgt id='1183'> +3.8315354E-01 </wgt>
<wgt id='1184'> +3.9127989E-01 </wgt>
<wgt id='1185'> +3.9309392E-01 </wgt>
<wgt id='1186'> +3.9045567E-01 </wgt>
<wgt id='1187'> +3.8869602E-01 </wgt>
<wgt id='1188'> +3.8750002E-01 </wgt>
<wgt id='1189'> +3.9212337E-01 </wgt>
<wgt id='1190'> +3.9017759E-01 </wgt>
<wgt id='1191'> +3.8683128E-01 </wgt>
<wgt id='1192'> +3.8253393E-01 </wgt>
<wgt id='1193'> +3.8647948E-01 </wgt>
<wgt id='1194'> +3.9253572E-01 </wgt>
<wgt id='1195'> +3.8834499E-01 </wgt>
<wgt id='1196'> +3.8366599E-01 </wgt>
<wgt id='1197'> +3.8700098E-01 </wgt>
<wgt id='1198'> +3.9326087E-01 </wgt>
<wgt id='1199'> +3.8629243E-01 </wgt>
<wgt id='1200'> +3.9255907E-01 </wgt>
<wgt id='1201'> +3.9207579E-01 </wgt>
<wgt id='1202'> +3.9072261E-01 </wgt>
<wgt id='1203'> +3.9447632E-01 </wgt>
<wgt id='1204'> +3.9252634E-01 </wgt>
<wgt id='1205'> +3.8419481E-01 </wgt>
<wgt id='1206'> +3.9054684E-01 </wgt>
<wgt id='1207'> +3.9009997E-01 </wgt>
<wgt id='1208'> +3.9715995E-01 </wgt>
<wgt id='1209'> +3.9770226E-01 </wgt>
<wgt id='1210'> +3.8087040E-01 </wgt>
<wgt id='1211'> +3.8751590E-01 </wgt>
<wgt id='1212'> +3.8310800E-01 </wgt>
<wgt id='1213'> +3.9390930E-01 </wgt>
<wgt id='1214'> +3.9079799E-01 </wgt>
<wgt id='1215'> +3.9092143E-01 </wgt>
<wgt id='1216'> +3.8747125E-01 </wgt>
<wgt id='1217'> +3.8606652E-01 </wgt>
<wgt id='1218'> +3.8702622E-01 </wgt>
<wgt id='1219'> +3.8160181E-01 </wgt>
<wgt id='1220'> +3.9626587E-01 </wgt>
<wgt id='1221'> +3.7988094E-01 </wgt>
<wgt id='1222'> +3.9228422E-01 </wgt>
<wgt id='1223'> +3.8867425E-01 </wgt>
<wgt id='1224'> +3.8603457E-01 </wgt>
<wgt id='1225'> +3.9509143E-01 </wgt>
<wgt id='1226'> +3.7890937E-01 </wgt>
<wgt id='1227'> +4.0125003E-01 </wgt>
<wgt id='1228'> +3.8947996E-01 </wgt>
<wgt id='1229'> +3.7825159E-01 </wgt>
<wgt id='1230'> +3.8531570E-01 </wgt>
<wgt id='1231'> +3.9005997E-01 </wgt>
<wgt id='1232'> +3.7920841E-01 </wgt>
<wgt id='1233'> +3.9021845E-01 </wgt>
<wgt id='1234'> +4.0104481E-01 </wgt>
<wgt id='1235'> +3.7637215E-01 </wgt>
<wgt id='1236'> +3.9735541E-01 </wgt>
<wgt id='1237'> +3.8214553E-01 </wgt>
<wgt id='1238'> +3.7889049E-01 </wgt>
<wgt id='1239'> +3.9269706E-01 </wgt>
<wgt id='1240'> +3.9504812E-01 </wgt>
<wgt id='1241'> +3.9311025E-01 </wgt>
<wgt id='1242'> +3.8897655E-01 </wgt>
<wgt id='1243'> +3.8426935E-01 </wgt>
<wgt id='1244'> +3.8633755E-01 </wgt>
<wgt id='1245'> +3.9683012E-01 </wgt>
<wgt id='1246'> +3.7886656E-01 </wgt>
<wgt id='1247'> +3.8613311E-01 </wgt>
<wgt id='1248'> +3.9164908E-01 </wgt>
<wgt id='1249'> +3.9280263E-01 </wgt>
<wgt id='1250'> +3.8536406E-01 </wgt>
<wgt id='1251'> +3.8169782E-01 </wgt>
<wgt id='1252'> +3.9136084E-01 </wgt>
<wgt id='1253'> +3.8909709E-01 </wgt>
<wgt id='1254'> +3.5006200E-01 </wgt>
<wgt id='1255'> +3.9736445E-01 </wgt>
<wgt id='1256'> +3.9971641E-01 </wgt>
<wgt id='1257'> +3.9600052E-01 </wgt>
<wgt id='1258'> +3.9678573E-01 </wgt>
<wgt id='1259'> +3.9765993E-01 </wgt>
<wgt id='1260'> +3.9809010E-01 </wgt>
<wgt id='1261'> +3.9638291E-01 </wgt>
<wgt id='1262'> +3.9790134E-01 </wgt>
<wgt id='1263'> +3.9701410E-01 </wgt>
<wgt id='1264'> +3.9696604E-01 </wgt>
<wgt id='1265'> +3.9762591E-01 </wgt>
<wgt id='1266'> +3.9747220E-01 </wgt>
<wgt id='1267'> +3.9725042E-01 </wgt>
<wgt id='1268'> +4.0080532E-01 </wgt>
<wgt id='1269'> +3.9392311E-01 </wgt>
<wgt id='1270'> +3.9714135E-01 </wgt>
<wgt id='1271'> +3.9710762E-01 </wgt>
<wgt id='1272'> +3.9774241E-01 </wgt>
<wgt id='1273'> +3.9705416E-01 </wgt>
<wgt id='1274'> +3.9670087E-01 </wgt>
<wgt id='1275'> +3.9819269E-01 </wgt>
<wgt id='1276'> +3.9630594E-01 </wgt>
<wgt id='1277'> +3.9846593E-01 </wgt>
<wgt id='1278'> +3.9543831E-01 </wgt>
<wgt id='1279'> +3.9889296E-01 </wgt>
<wgt id='1280'> +3.9706610E-01 </wgt>
<wgt id='1281'> +3.9803444E-01 </wgt>
<wgt id='1282'> +3.9976618E-01 </wgt>
<wgt id='1283'> +3.9448706E-01 </wgt>
<wgt id='1284'> +3.9603769E-01 </wgt>
<wgt id='1285'> +3.9847515E-01 </wgt>
<wgt id='1286'> +3.9853247E-01 </wgt>
<wgt id='1287'> +3.9730837E-01 </wgt>
<wgt id='1288'> +3.9710611E-01 </wgt>
<wgt id='1289'> +3.9738830E-01 </wgt>
<wgt id='1290'> +3.9797343E-01 </wgt>
<wgt id='1291'> +3.9714324E-01 </wgt>
<wgt id='1292'> +3.9873488E-01 </wgt>
<wgt id='1293'> +3.9510799E-01 </wgt>
<wgt id='1294'> +3.9493155E-01 </wgt>
<wgt id='1295'> +3.9793846E-01 </wgt>
<wgt id='1296'> +3.9033441E-01 </wgt>
<wgt id='1297'> +3.9127835E-01 </wgt>
<wgt id='1298'> +3.8955507E-01 </wgt>
<wgt id='1299'> +3.8928463E-01 </wgt>
<wgt id='1300'> +3.9148616E-01 </wgt>
<wgt id='1301'> +3.8949005E-01 </wgt>
<wgt id='1302'> +3.9156572E-01 </wgt>
<wgt id='1303'> +3.8998909E-01 </wgt>
<wgt id='1304'> +3.9056723E-01 </wgt>
<wgt id='1305'> +3.9065711E-01 </wgt>
<wgt id='1306'> +3.8986249E-01 </wgt>
<wgt id='1307'> +3.9197148E-01 </wgt>
<wgt id='1308'> +3.8929422E-01 </wgt>
<wgt id='1309'> +3.9078899E-01 </wgt>
<wgt id='1310'> +3.8969830E-01 </wgt>
<wgt id='1311'> +3.9360751E-01 </wgt>
<wgt id='1312'> +3.8914167E-01 </wgt>
<wgt id='1313'> +3.9127990E-01 </wgt>
<wgt id='1314'> +3.8895467E-01 </wgt>
<wgt id='1315'> +3.9008832E-01 </wgt>
<wgt id='1316'> +3.9054067E-01 </wgt>
<wgt id='1317'> +3.8796609E-01 </wgt>
<wgt id='1318'> +3.9467463E-01 </wgt>
<wgt id='1319'> +3.9177695E-01 </wgt>
<wgt id='1320'> +3.8950003E-01 </wgt>
<wgt id='1321'> +3.8941321E-01 </wgt>
<wgt id='1322'> +3.9080616E-01 </wgt>
<wgt id='1323'> +3.9019383E-01 </wgt>
<wgt id='1324'> +3.9046074E-01 </wgt>
<wgt id='1325'> +3.9056380E-01 </wgt>
<wgt id='1326'> +3.9006184E-01 </wgt>
<wgt id='1327'> +3.9062531E-01 </wgt>
<wgt id='1328'> +3.9023346E-01 </wgt>
<wgt id='1329'> +3.9047954E-01 </wgt>
<wgt id='1330'> +3.9023901E-01 </wgt>
<wgt id='1331'> +3.9022281E-01 </wgt>
<wgt id='1332'> +3.9075964E-01 </wgt>
<wgt id='1333'> +3.9222887E-01 </wgt>
<wgt id='1334'> +3.8726335E-01 </wgt>
<wgt id='1335'> +3.9134321E-01 </wgt>
<wgt id='1336'> +3.9007832E-01 </wgt>
<wgt id='1337'> +3.9033441E-01 </wgt>
<wgt id='1338'> +3.9022082E-01 </wgt>
<wgt id='1339'> +3.9027104E-01 </wgt>
<wgt id='1340'> +3.9033022E-01 </wgt>
<wgt id='1341'> +3.9038711E-01 </wgt>
<wgt id='1342'> +3.9043555E-01 </wgt>
<wgt id='1343'> +3.9043086E-01 </wgt>
<wgt id='1344'> +3.8907774E-01 </wgt>
<wgt id='1345'> +3.9036249E-01 </wgt>
<wgt id='1346'> +3.8780516E-01 </wgt>
<wgt id='1347'> +3.9108012E-01 </wgt>
<wgt id='1348'> +3.8759589E-01 </wgt>
<wgt id='1349'> +3.8848552E-01 </wgt>
<wgt id='1350'> +3.8957967E-01 </wgt>
<wgt id='1351'> +3.8909176E-01 </wgt>
<wgt id='1352'> +3.8907333E-01 </wgt>
<wgt id='1353'> +3.8997002E-01 </wgt>
<wgt id='1354'> +3.8845202E-01 </wgt>
<wgt id='1355'> +3.8821985E-01 </wgt>
<wgt id='1356'> +3.8974212E-01 </wgt>
<wgt id='1357'> +3.8910616E-01 </wgt>
<wgt id='1358'> +3.8905037E-01 </wgt>
<wgt id='1359'> +3.8774651E-01 </wgt>
<wgt id='1360'> +3.9240291E-01 </wgt>
<wgt id='1361'> +3.9218615E-01 </wgt>
<wgt id='1362'> +3.8679007E-01 </wgt>
<wgt id='1363'> +3.8973948E-01 </wgt>
<wgt id='1364'> +3.8830062E-01 </wgt>
<wgt id='1365'> +3.8957095E-01 </wgt>
<wgt id='1366'> +3.8890341E-01 </wgt>
<wgt id='1367'> +3.8762504E-01 </wgt>
<wgt id='1368'> +3.8979771E-01 </wgt>
<wgt id='1369'> +3.8806835E-01 </wgt>
<wgt id='1370'> +3.9002475E-01 </wgt>
<wgt id='1371'> +3.8929415E-01 </wgt>
<wgt id='1372'> +3.8894341E-01 </wgt>
<wgt id='1373'> +3.9001783E-01 </wgt>
<wgt id='1374'> +3.8858626E-01 </wgt>
<wgt id='1375'> +3.8967709E-01 </wgt>
<wgt id='1376'> +3.8892063E-01 </wgt>
<wgt id='1377'> +3.8911807E-01 </wgt>
<wgt id='1378'> +3.8897919E-01 </wgt>
<wgt id='1379'> +3.9003711E-01 </wgt>
<wgt id='1380'> +3.8878964E-01 </wgt>
<wgt id='1381'> +3.8775663E-01 </wgt>
<wgt id='1382'> +3.8849509E-01 </wgt>
<wgt id='1383'> +3.8889302E-01 </wgt>
<wgt id='1384'> +3.8997981E-01 </wgt>
<wgt id='1385'> +3.8907774E-01 </wgt>
<wgt id='1386'> +3.8876196E-01 </wgt>
<wgt id='1387'> +3.8887723E-01 </wgt>
<wgt id='1388'> +3.8898179E-01 </wgt>
<wgt id='1389'> +3.8910913E-01 </wgt>
<wgt id='1390'> +3.8918327E-01 </wgt>
<wgt id='1391'> +3.8920910E-01 </wgt>
<wgt id='1392'> +4.0746081E-01 </wgt>
<wgt id='1393'> +4.0747645E-01 </wgt>
<wgt id='1394'> +4.0743156E-01 </wgt>
<wgt id='1395'> +4.0773524E-01 </wgt>
<wgt id='1396'> +4.0725644E-01 </wgt>
<wgt id='1397'> +4.0885969E-01 </wgt>
<wgt id='1398'> +4.0609261E-01 </wgt>
<wgt id='1399'> +4.0859450E-01 </wgt>
<wgt id='1400'> +4.0604925E-01 </wgt>
<wgt id='1401'> +4.0619860E-01 </wgt>
<wgt id='1402'> +4.0900591E-01 </wgt>
<wgt id='1403'> +4.0728393E-01 </wgt>
<wgt id='1404'> +4.0779264E-01 </wgt>
<wgt id='1405'> +4.0688355E-01 </wgt>
<wgt id='1406'> +4.0825141E-01 </wgt>
<wgt id='1407'> +4.0696336E-01 </wgt>
<wgt id='1408'> +4.0779265E-01 </wgt>
<wgt id='1409'> +4.0915809E-01 </wgt>
<wgt id='1410'> +4.0548967E-01 </wgt>
<wgt id='1411'> +4.0710480E-01 </wgt>
<wgt id='1412'> +4.0772834E-01 </wgt>
<wgt id='1413'> +4.0879776E-01 </wgt>
<wgt id='1414'> +4.0603910E-01 </wgt>
<wgt id='1415'> +4.0919394E-01 </wgt>
<wgt id='1416'> +4.0563055E-01 </wgt>
<wgt id='1417'> +4.0745744E-01 </wgt>
<wgt id='1418'> +4.0743426E-01 </wgt>
<wgt id='1419'> +4.0778416E-01 </wgt>
<wgt id='1420'> +4.0726277E-01 </wgt>
<wgt id='1421'> +4.0940075E-01 </wgt>
<wgt id='1422'> +4.0527840E-01 </wgt>
<wgt id='1423'> +4.0847191E-01 </wgt>
<wgt id='1424'> +4.0640355E-01 </wgt>
<wgt id='1425'> +4.0760437E-01 </wgt>
<wgt id='1426'> +4.0724294E-01 </wgt>
<wgt id='1427'> +4.0675857E-01 </wgt>
<wgt id='1428'> +4.0682216E-01 </wgt>
<wgt id='1429'> +4.0705402E-01 </wgt>
<wgt id='1430'> +4.0785185E-01 </wgt>
<wgt id='1431'> +4.0717100E-01 </wgt>
<wgt id='1432'> +4.0759501E-01 </wgt>
<wgt id='1433'> +4.0577622E-01 </wgt>
<wgt id='1434'> +4.0905361E-01 </wgt>
<wgt id='1435'> +4.0740409E-01 </wgt>
<wgt id='1436'> +4.0767964E-01 </wgt>
<wgt id='1437'> +4.0697683E-01 </wgt>
<wgt id='1438'> +4.0856554E-01 </wgt>
<wgt id='1439'> +4.0908408E-01 </wgt>
<wgt id='1440'> +4.0394158E-01 </wgt>
<wgt id='1441'> +4.0812045E-01 </wgt>
<wgt id='1442'> +4.0803249E-01 </wgt>
<wgt id='1443'> +4.0419201E-01 </wgt>
<wgt id='1444'> +4.0423088E-01 </wgt>
<wgt id='1445'> +4.0415368E-01 </wgt>
<wgt id='1446'> +4.0447839E-01 </wgt>
<wgt id='1447'> +4.0399495E-01 </wgt>
<wgt id='1448'> +4.0568321E-01 </wgt>
<wgt id='1449'> +4.0280037E-01 </wgt>
<wgt id='1450'> +4.0526448E-01 </wgt>
<wgt id='1451'> +4.0299400E-01 </wgt>
<wgt id='1452'> +4.0293241E-01 </wgt>
<wgt id='1453'> +4.0540057E-01 </wgt>
<wgt id='1454'> +4.0393822E-01 </wgt>
<wgt id='1455'> +4.0474400E-01 </wgt>
<wgt id='1456'> +4.0349257E-01 </wgt>
<wgt id='1457'> +4.0543169E-01 </wgt>
<wgt id='1458'> +4.0377578E-01 </wgt>
<wgt id='1459'> +4.0442619E-01 </wgt>
<wgt id='1460'> +4.0583690E-01 </wgt>
<wgt id='1461'> +4.0221418E-01 </wgt>
<wgt id='1462'> +4.0347711E-01 </wgt>
<wgt id='1463'> +4.0479514E-01 </wgt>
<wgt id='1464'> +4.0541390E-01 </wgt>
<wgt id='1465'> +4.0258914E-01 </wgt>
<wgt id='1466'> +4.0640920E-01 </wgt>
<wgt id='1467'> +4.0260073E-01 </wgt>
<wgt id='1468'> +4.0355590E-01 </wgt>
<wgt id='1469'> +4.0486601E-01 </wgt>
<wgt id='1470'> +4.0457390E-01 </wgt>
<wgt id='1471'> +4.0400301E-01 </wgt>
<wgt id='1472'> +4.0579337E-01 </wgt>
<wgt id='1473'> +4.0234009E-01 </wgt>
<wgt id='1474'> +4.0497479E-01 </wgt>
<wgt id='1475'> +4.0301255E-01 </wgt>
<wgt id='1476'> +4.0426440E-01 </wgt>
<wgt id='1477'> +4.0404289E-01 </wgt>
<wgt id='1478'> +4.0356496E-01 </wgt>
<wgt id='1479'> +4.0359581E-01 </wgt>
<wgt id='1480'> +4.0397366E-01 </wgt>
<wgt id='1481'> +4.0447598E-01 </wgt>
<wgt id='1482'> +4.0388058E-01 </wgt>
<wgt id='1483'> +4.0437954E-01 </wgt>
<wgt id='1484'> +4.0251578E-01 </wgt>
<wgt id='1485'> +4.0582869E-01 </wgt>
<wgt id='1486'> +4.0427539E-01 </wgt>
<wgt id='1487'> +4.0425812E-01 </wgt>
<wgt id='1488'> +4.0366767E-01 </wgt>
<wgt id='1489'> +4.0534458E-01 </wgt>
<wgt id='1490'> +4.0655129E-01 </wgt>
<wgt id='1491'> +4.0038661E-01 </wgt>
<wgt id='1492'> +4.0531315E-01 </wgt>
<wgt id='1493'> +4.0476260E-01 </wgt>
<wgt id='1494'> +3.8913233E-01 </wgt>
<wgt id='1495'> +3.8486681E-01 </wgt>
<wgt id='1496'> +3.8635364E-01 </wgt>
<wgt id='1497'> +3.8781337E-01 </wgt>
<wgt id='1498'> +3.9018477E-01 </wgt>
<wgt id='1499'> +3.8900746E-01 </wgt>
<wgt id='1500'> +3.9170395E-01 </wgt>
<wgt id='1501'> +3.9118669E-01 </wgt>
<wgt id='1502'> +3.9065007E-01 </wgt>
<wgt id='1503'> +3.9011913E-01 </wgt>
<wgt id='1504'> +3.8958745E-01 </wgt>
<wgt id='1505'> +3.8850286E-01 </wgt>
<wgt id='1506'> +3.8795659E-01 </wgt>
<wgt id='1507'> +3.8742449E-01 </wgt>
<wgt id='1508'> +3.8900746E-01 </wgt>
<wgt id='1509'> +3.8913697E-01 </wgt>
<wgt id='1510'> +3.8906112E-01 </wgt>
<wgt id='1511'> +3.8895860E-01 </wgt>
<wgt id='1512'> +3.8889697E-01 </wgt>
<wgt id='1513'> +3.9017358E-01 </wgt>
<wgt id='1514'> +3.9001363E-01 </wgt>
<wgt id='1515'> +3.9036882E-01 </wgt>
<wgt id='1516'> +3.9082965E-01 </wgt>
<wgt id='1517'> +3.8951476E-01 </wgt>
<wgt id='1518'> +3.9092898E-01 </wgt>
<wgt id='1519'> +3.8986831E-01 </wgt>
<wgt id='1520'> +3.9196620E-01 </wgt>
<wgt id='1521'> +3.8838421E-01 </wgt>
<wgt id='1522'> +3.8951238E-01 </wgt>
<wgt id='1523'> +3.9080862E-01 </wgt>
<wgt id='1524'> +3.9161683E-01 </wgt>
<wgt id='1525'> +3.8954531E-01 </wgt>
<wgt id='1526'> +3.9017055E-01 </wgt>
<wgt id='1527'> +3.9017210E-01 </wgt>
<wgt id='1528'> +3.8940878E-01 </wgt>
<wgt id='1529'> +3.9100425E-01 </wgt>
<wgt id='1530'> +3.9293823E-01 </wgt>
<wgt id='1531'> +3.8860074E-01 </wgt>
<wgt id='1532'> +3.9133855E-01 </wgt>
<wgt id='1533'> +3.8856764E-01 </wgt>
<wgt id='1534'> +3.8904049E-01 </wgt>
<wgt id='1535'> +3.9096945E-01 </wgt>
<wgt id='1536'> +3.8926092E-01 </wgt>
<wgt id='1537'> +3.9107548E-01 </wgt>
<wgt id='1538'> +3.8961056E-01 </wgt>
<wgt id='1539'> +3.9143628E-01 </wgt>
<wgt id='1540'> +3.9014296E-01 </wgt>
<wgt id='1541'> +3.9013400E-01 </wgt>
<wgt id='1542'> +3.8902471E-01 </wgt>
<wgt id='1543'> +3.9348442E-01 </wgt>
<wgt id='1544'> +3.9016334E-01 </wgt>
<wgt id='1545'> +3.8944591E-01 </wgt>
<wgt id='1546'> +3.8942438E-01 </wgt>
<wgt id='1547'> +3.9071124E-01 </wgt>
<wgt id='1548'> +3.9010176E-01 </wgt>
<wgt id='1549'> +3.8940303E-01 </wgt>
<wgt id='1550'> +3.9028566E-01 </wgt>
<wgt id='1551'> +3.8986024E-01 </wgt>
<wgt id='1552'> +3.8978196E-01 </wgt>
<wgt id='1553'> +3.9030894E-01 </wgt>
<wgt id='1554'> +3.9054242E-01 </wgt>
<wgt id='1555'> +3.8855350E-01 </wgt>
<wgt id='1556'> +3.9074562E-01 </wgt>
<wgt id='1557'> +3.8994539E-01 </wgt>
<wgt id='1558'> +3.8781340E-01 </wgt>
<wgt id='1559'> +3.9134242E-01 </wgt>
<wgt id='1560'> +3.9191548E-01 </wgt>
<wgt id='1561'> +3.8931563E-01 </wgt>
<wgt id='1562'> +3.8843955E-01 </wgt>
<wgt id='1563'> +3.9094053E-01 </wgt>
<wgt id='1564'> +3.9017358E-01 </wgt>
<wgt id='1565'> +3.8866425E-01 </wgt>
<wgt id='1566'> +3.9043794E-01 </wgt>
<wgt id='1567'> +3.8962097E-01 </wgt>
<wgt id='1568'> +3.9225590E-01 </wgt>
<wgt id='1569'> +3.9173956E-01 </wgt>
<wgt id='1570'> +3.9118374E-01 </wgt>
<wgt id='1571'> +3.9064874E-01 </wgt>
<wgt id='1572'> +3.9010678E-01 </wgt>
<wgt id='1573'> +3.8911011E-01 </wgt>
<wgt id='1574'> +3.8841232E-01 </wgt>
<wgt id='1575'> +3.8792183E-01 </wgt>
<wgt id='1576'> +3.8962097E-01 </wgt>
<wgt id='1577'> +3.8966267E-01 </wgt>
<wgt id='1578'> +3.8964592E-01 </wgt>
<wgt id='1579'> +3.8958156E-01 </wgt>
<wgt id='1580'> +3.8957365E-01 </wgt>
<wgt id='1581'> +3.8999038E-01 </wgt>
<wgt id='1582'> +3.9024533E-01 </wgt>
<wgt id='1583'> +3.9159374E-01 </wgt>
<wgt id='1584'> +3.8812857E-01 </wgt>
<wgt id='1585'> +3.9119869E-01 </wgt>
<wgt id='1586'> +3.8776250E-01 </wgt>
<wgt id='1587'> +3.8632637E-01 </wgt>
<wgt id='1588'> +3.9297345E-01 </wgt>
<wgt id='1589'> +3.8974721E-01 </wgt>
<wgt id='1590'> +3.9055216E-01 </wgt>
<wgt id='1591'> +3.8927510E-01 </wgt>
<wgt id='1592'> +3.9134482E-01 </wgt>
<wgt id='1593'> +3.9071592E-01 </wgt>
<wgt id='1594'> +3.9001691E-01 </wgt>
<wgt id='1595'> +3.8956440E-01 </wgt>
<wgt id='1596'> +3.9249305E-01 </wgt>
<wgt id='1597'> +3.9090107E-01 </wgt>
<wgt id='1598'> +3.9023423E-01 </wgt>
<wgt id='1599'> +3.9020977E-01 </wgt>
<wgt id='1600'> +3.9102611E-01 </wgt>
<wgt id='1601'> +3.8937946E-01 </wgt>
<wgt id='1602'> +3.9078359E-01 </wgt>
<wgt id='1603'> +3.9074317E-01 </wgt>
<wgt id='1604'> +3.9032663E-01 </wgt>
<wgt id='1605'> +3.8928795E-01 </wgt>
<wgt id='1606'> +3.9033883E-01 </wgt>
<wgt id='1607'> +3.9045097E-01 </wgt>
<wgt id='1608'> +3.9046953E-01 </wgt>
<wgt id='1609'> +3.9092247E-01 </wgt>
<wgt id='1610'> +3.8958644E-01 </wgt>
<wgt id='1611'> +3.9182298E-01 </wgt>
<wgt id='1612'> +3.9258151E-01 </wgt>
<wgt id='1613'> +3.9233301E-01 </wgt>
<wgt id='1614'> +3.9326629E-01 </wgt>
<wgt id='1615'> +3.9336641E-01 </wgt>
<wgt id='1616'> +3.9220127E-01 </wgt>
<wgt id='1617'> +3.9209104E-01 </wgt>
<wgt id='1618'> +3.9294837E-01 </wgt>
<wgt id='1619'> +3.9104868E-01 </wgt>
<wgt id='1620'> +3.9172186E-01 </wgt>
<wgt id='1621'> +3.9286139E-01 </wgt>
<wgt id='1622'> +3.9347636E-01 </wgt>
<wgt id='1623'> +3.9247876E-01 </wgt>
<wgt id='1624'> +3.9237436E-01 </wgt>
<wgt id='1625'> +3.9344335E-01 </wgt>
<wgt id='1626'> +3.9460216E-01 </wgt>
<wgt id='1627'> +3.9256474E-01 </wgt>
<wgt id='1628'> +3.9251113E-01 </wgt>
<wgt id='1629'> +3.9314508E-01 </wgt>
<wgt id='1630'> +3.9348260E-01 </wgt>
<wgt id='1631'> +3.9292977E-01 </wgt>
<wgt id='1632'> +3.9394342E-01 </wgt>
<wgt id='1633'> +3.9189814E-01 </wgt>
<wgt id='1634'> +3.9412003E-01 </wgt>
<wgt id='1635'> +3.9218570E-01 </wgt>
<wgt id='1636'> +3.9248455E-01 </wgt>
<wgt id='1637'> +3.9397363E-01 </wgt>
<wgt id='1638'> +3.9240485E-01 </wgt>
<wgt id='1639'> +3.9352830E-01 </wgt>
<wgt id='1640'> +3.9304734E-01 </wgt>
<wgt id='1641'> +3.8870633E-01 </wgt>
<wgt id='1642'> +3.9166981E-01 </wgt>
<wgt id='1643'> +3.9241964E-01 </wgt>
<wgt id='1644'> +3.9156305E-01 </wgt>
<wgt id='1645'> +3.9197612E-01 </wgt>
<wgt id='1646'> +3.9311605E-01 </wgt>
<wgt id='1647'> +3.9197261E-01 </wgt>
<wgt id='1648'> +3.9217196E-01 </wgt>
<wgt id='1649'> +3.9303368E-01 </wgt>
<wgt id='1650'> +3.9226740E-01 </wgt>
<wgt id='1651'> +3.9264609E-01 </wgt>
<wgt id='1652'> +3.9217555E-01 </wgt>
<wgt id='1653'> +3.9242787E-01 </wgt>
<wgt id='1654'> +3.9230023E-01 </wgt>
<wgt id='1655'> +3.9324338E-01 </wgt>
<wgt id='1656'> +3.9251880E-01 </wgt>
<wgt id='1657'> +3.9239815E-01 </wgt>
<wgt id='1658'> +3.9295704E-01 </wgt>
<wgt id='1659'> +3.9315871E-01 </wgt>
<wgt id='1660'> +3.9285515E-01 </wgt>
<wgt id='1661'> +3.9282134E-01 </wgt>
<wgt id='1662'> +3.9289076E-01 </wgt>
<wgt id='1663'> +3.9330689E-01 </wgt>
<wgt id='1664'> +3.9277510E-01 </wgt>
<wgt id='1665'> +3.9285538E-01 </wgt>
<wgt id='1666'> +3.9311474E-01 </wgt>
<wgt id='1667'> +3.9248312E-01 </wgt>
<wgt id='1668'> +3.9226672E-01 </wgt>
<wgt id='1669'> +3.9239469E-01 </wgt>
<wgt id='1670'> +3.9196782E-01 </wgt>
<wgt id='1671'> +3.9269679E-01 </wgt>
<wgt id='1672'> +3.9284798E-01 </wgt>
<wgt id='1673'> +3.9273730E-01 </wgt>
<wgt id='1674'> +3.9256849E-01 </wgt>
<wgt id='1675'> +3.9230037E-01 </wgt>
<wgt id='1676'> +3.9188555E-01 </wgt>
<wgt id='1677'> +3.9261835E-01 </wgt>
<wgt id='1678'> +3.9291175E-01 </wgt>
<wgt id='1679'> +3.9304459E-01 </wgt>
<wgt id='1680'> +3.9340811E-01 </wgt>
<wgt id='1681'> +3.9244788E-01 </wgt>
<wgt id='1682'> +3.9250922E-01 </wgt>
<wgt id='1683'> +3.9248958E-01 </wgt>
<wgt id='1684'> +3.9258630E-01 </wgt>
<wgt id='1685'> +3.9218214E-01 </wgt>
<wgt id='1686'> +3.9249425E-01 </wgt>
<wgt id='1687'> +3.9220705E-01 </wgt>
<wgt id='1688'> +3.9236658E-01 </wgt>
<wgt id='1689'> +3.9289732E-01 </wgt>
<wgt id='1690'> +3.9280822E-01 </wgt>
<wgt id='1691'> +3.9289532E-01 </wgt>
<wgt id='1692'> +3.9252981E-01 </wgt>
<wgt id='1693'> +3.9295472E-01 </wgt>
<wgt id='1694'> +3.9297809E-01 </wgt>
<wgt id='1695'> +3.9287838E-01 </wgt>
<wgt id='1696'> +3.9243295E-01 </wgt>
<wgt id='1697'> +3.9264109E-01 </wgt>
<wgt id='1698'> +3.9234185E-01 </wgt>
<wgt id='1699'> +3.9256093E-01 </wgt>
<wgt id='1700'> +3.9250026E-01 </wgt>
<wgt id='1701'> +3.9262991E-01 </wgt>
<wgt id='1702'> +3.9249570E-01 </wgt>
<wgt id='1703'> +3.9258877E-01 </wgt>
<wgt id='1704'> +3.9268039E-01 </wgt>
<wgt id='1705'> +3.9238060E-01 </wgt>
<wgt id='1706'> +3.9242937E-01 </wgt>
<wgt id='1707'> +3.9246722E-01 </wgt>
<wgt id='1708'> +3.9236376E-01 </wgt>
<wgt id='1709'> +3.9265327E-01 </wgt>
<wgt id='1710'> +3.9242773E-01 </wgt>
<wgt id='1711'> +3.9250949E-01 </wgt>
<wgt id='1712'> +3.9238472E-01 </wgt>
<wgt id='1713'> +3.8672212E-01 </wgt>
<wgt id='1714'> +3.9706248E-01 </wgt>
<wgt id='1715'> +3.9016873E-01 </wgt>
<wgt id='1716'> +3.8663735E-01 </wgt>
<wgt id='1717'> +3.8801406E-01 </wgt>
<wgt id='1718'> +3.8399094E-01 </wgt>
<wgt id='1719'> +3.8508689E-01 </wgt>
<wgt id='1720'> +3.9966395E-01 </wgt>
<wgt id='1721'> +3.7838540E-01 </wgt>
<wgt id='1722'> +3.8874543E-01 </wgt>
<wgt id='1723'> +3.9088461E-01 </wgt>
<wgt id='1724'> +3.9566198E-01 </wgt>
<wgt id='1725'> +3.9765554E-01 </wgt>
<wgt id='1726'> +3.9881494E-01 </wgt>
<wgt id='1727'> +3.8967643E-01 </wgt>
<wgt id='1728'> +3.9095511E-01 </wgt>
<wgt id='1729'> +3.9060956E-01 </wgt>
<wgt id='1730'> +3.8576065E-01 </wgt>
<wgt id='1731'> +3.6471055E-01 </wgt>
<wgt id='1732'> +4.0523038E-01 </wgt>
<wgt id='1733'> +3.9560964E-01 </wgt>
<wgt id='1734'> +3.8912449E-01 </wgt>
<wgt id='1735'> +3.8065420E-01 </wgt>
<wgt id='1736'> +3.8831516E-01 </wgt>
<wgt id='1737'> +3.9362011E-01 </wgt>
<wgt id='1738'> +3.9564536E-01 </wgt>
<wgt id='1739'> +3.8528432E-01 </wgt>
<wgt id='1740'> +3.8696783E-01 </wgt>
<wgt id='1741'> +3.8785500E-01 </wgt>
<wgt id='1742'> +4.0254099E-01 </wgt>
<wgt id='1743'> +3.8309439E-01 </wgt>
<wgt id='1744'> +3.9498183E-01 </wgt>
<wgt id='1745'> +3.7809858E-01 </wgt>
<wgt id='1746'> +3.8951784E-01 </wgt>
<wgt id='1747'> +3.8972665E-01 </wgt>
<wgt id='1748'> +3.8737904E-01 </wgt>
<wgt id='1749'> +4.0328848E-01 </wgt>
<wgt id='1750'> +3.9289084E-01 </wgt>
<wgt id='1751'> +3.9086812E-01 </wgt>
<wgt id='1752'> +3.7369898E-01 </wgt>
<wgt id='1753'> +3.8628178E-01 </wgt>
<wgt id='1754'> +3.9266894E-01 </wgt>
<wgt id='1755'> +3.9579080E-01 </wgt>
<wgt id='1756'> +3.8130934E-01 </wgt>
<wgt id='1757'> +3.8431935E-01 </wgt>
<wgt id='1758'> +3.8545115E-01 </wgt>
<wgt id='1759'> +3.8628768E-01 </wgt>
<wgt id='1760'> +3.8445818E-01 </wgt>
<wgt id='1761'> +3.9269419E-01 </wgt>
<wgt id='1762'> +3.8967643E-01 </wgt>
<wgt id='1763'> +3.8855664E-01 </wgt>
<wgt id='1764'> +3.9482244E-01 </wgt>
<wgt id='1765'> +3.9393700E-01 </wgt>
<wgt id='1766'> +4.0509505E-01 </wgt>
<wgt id='1767'> +3.8699383E-01 </wgt>
<wgt id='1768'> +3.7821293E-01 </wgt>
<wgt id='1769'> +3.9239212E-01 </wgt>
<wgt id='1770'> +4.0029415E-01 </wgt>
<wgt id='1771'> +3.8669711E-01 </wgt>
<wgt id='1772'> +3.8809905E-01 </wgt>
<wgt id='1773'> +3.9466515E-01 </wgt>
<wgt id='1774'> +3.8142394E-01 </wgt>
<wgt id='1775'> +3.9100959E-01 </wgt>
<wgt id='1776'> +3.9347702E-01 </wgt>
<wgt id='1777'> +3.9411307E-01 </wgt>
<wgt id='1778'> +3.9118863E-01 </wgt>
<wgt id='1779'> +3.8760136E-01 </wgt>
<wgt id='1780'> +3.9910151E-01 </wgt>
<wgt id='1781'> +3.9380529E-01 </wgt>
<wgt id='1782'> +4.0064832E-01 </wgt>
<wgt id='1783'> +3.8458997E-01 </wgt>
<wgt id='1784'> +3.9940315E-01 </wgt>
<wgt id='1785'> +3.9629032E-01 </wgt>
<wgt id='1786'> +3.9639846E-01 </wgt>
<wgt id='1787'> +3.9291008E-01 </wgt>
<wgt id='1788'> +3.8521306E-01 </wgt>
<wgt id='1789'> +3.9480905E-01 </wgt>
<wgt id='1790'> +3.9809656E-01 </wgt>
<wgt id='1791'> +3.7412021E-01 </wgt>
<wgt id='1792'> +3.9490116E-01 </wgt>
<wgt id='1793'> +4.0284486E-01 </wgt>
<wgt id='1794'> +3.8770023E-01 </wgt>
<wgt id='1795'> +3.7935113E-01 </wgt>
<wgt id='1796'> +3.9354162E-01 </wgt>
<wgt id='1797'> +3.8498551E-01 </wgt>
<wgt id='1798'> +3.9359588E-01 </wgt>
<wgt id='1799'> +3.9609758E-01 </wgt>
<wgt id='1800'> +3.9310378E-01 </wgt>
<wgt id='1801'> +3.8395714E-01 </wgt>
<wgt id='1802'> +3.8762546E-01 </wgt>
<wgt id='1803'> +3.8968080E-01 </wgt>
<wgt id='1804'> +3.9607985E-01 </wgt>
<wgt id='1805'> +3.8887602E-01 </wgt>
<wgt id='1806'> +3.8571517E-01 </wgt>
<wgt id='1807'> +3.8009031E-01 </wgt>
<wgt id='1808'> +3.9023310E-01 </wgt>
<wgt id='1809'> +3.8679163E-01 </wgt>
<wgt id='1810'> +3.8788008E-01 </wgt>
<wgt id='1811'> +3.8970475E-01 </wgt>
<wgt id='1812'> +3.8862013E-01 </wgt>
<wgt id='1813'> +3.9418266E-01 </wgt>
<wgt id='1814'> +3.9147272E-01 </wgt>
<wgt id='1815'> +3.9712938E-01 </wgt>
<wgt id='1816'> +3.9582821E-01 </wgt>
<wgt id='1817'> +4.0060262E-01 </wgt>
<wgt id='1818'> +3.9083600E-01 </wgt>
<wgt id='1819'> +4.0099861E-01 </wgt>
<wgt id='1820'> +4.0332512E-01 </wgt>
<wgt id='1821'> +4.0433227E-01 </wgt>
<wgt id='1822'> +4.0066024E-01 </wgt>
<wgt id='1823'> +3.9579376E-01 </wgt>
<wgt id='1824'> +3.9401117E-01 </wgt>
<wgt id='1825'> +3.9488748E-01 </wgt>
<wgt id='1826'> +3.8423052E-01 </wgt>
<wgt id='1827'> +3.8840218E-01 </wgt>
<wgt id='1828'> +4.0186947E-01 </wgt>
<wgt id='1829'> +4.0207522E-01 </wgt>
<wgt id='1830'> +3.8783075E-01 </wgt>
<wgt id='1831'> +4.0001272E-01 </wgt>
<wgt id='1832'> +3.9194661E-01 </wgt>
<wgt id='1833'> +3.8912920E-01 </wgt>
<wgt id='1834'> +3.8801731E-01 </wgt>
<wgt id='1835'> +4.0000052E-01 </wgt>
<wgt id='1836'> +3.9944073E-01 </wgt>
<wgt id='1837'> +4.0117579E-01 </wgt>
<wgt id='1838'> +3.8900878E-01 </wgt>
<wgt id='1839'> +4.1640692E-01 </wgt>
<wgt id='1840'> +3.9667915E-01 </wgt>
<wgt id='1841'> +3.9680153E-01 </wgt>
<wgt id='1842'> +4.0003367E-01 </wgt>
<wgt id='1843'> +3.8500130E-01 </wgt>
<wgt id='1844'> +3.9775440E-01 </wgt>
<wgt id='1845'> +3.9469032E-01 </wgt>
<wgt id='1846'> +3.9994859E-01 </wgt>
<wgt id='1847'> +3.9347408E-01 </wgt>
<wgt id='1848'> +3.9545645E-01 </wgt>
<wgt id='1849'> +3.9613186E-01 </wgt>
<wgt id='1850'> +3.9814875E-01 </wgt>
<wgt id='1851'> +3.9515983E-01 </wgt>
<wgt id='1852'> +3.9857755E-01 </wgt>
<wgt id='1853'> +3.9016871E-01 </wgt>
<wgt id='1854'> +4.0110406E-01 </wgt>
<wgt id='1855'> +3.9466797E-01 </wgt>
<wgt id='1856'> +3.9881507E-01 </wgt>
<wgt id='1857'> +4.0612156E-01 </wgt>
<wgt id='1858'> +3.9489632E-01 </wgt>
<wgt id='1859'> +3.9814109E-01 </wgt>
<wgt id='1860'> +3.9395576E-01 </wgt>
<wgt id='1861'> +3.9021908E-01 </wgt>
<wgt id='1862'> +4.0037590E-01 </wgt>
<wgt id='1863'> +3.9073088E-01 </wgt>
<wgt id='1864'> +3.9141185E-01 </wgt>
<wgt id='1865'> +3.9645297E-01 </wgt>
<wgt id='1866'> +3.9717149E-01 </wgt>
<wgt id='1867'> +3.9901821E-01 </wgt>
<wgt id='1868'> +3.9234623E-01 </wgt>
<wgt id='1869'> +4.0352942E-01 </wgt>
<wgt id='1870'> +3.9551936E-01 </wgt>
<wgt id='1871'> +3.9343245E-01 </wgt>
<wgt id='1872'> +3.8534812E-01 </wgt>
<wgt id='1873'> +4.0452335E-01 </wgt>
<wgt id='1874'> +3.9612398E-01 </wgt>
<wgt id='1875'> +3.9147947E-01 </wgt>
<wgt id='1876'> +3.9551213E-01 </wgt>
<wgt id='1877'> +3.9886802E-01 </wgt>
<wgt id='1878'> +3.9401071E-01 </wgt>
<wgt id='1879'> +4.0654829E-01 </wgt>
<wgt id='1880'> +3.7671207E-01 </wgt>
<wgt id='1881'> +3.9847490E-01 </wgt>
<wgt id='1882'> +3.9087354E-01 </wgt>
<wgt id='1883'> +4.1434074E-01 </wgt>
<wgt id='1884'> +3.9114014E-01 </wgt>
<wgt id='1885'> +3.8697813E-01 </wgt>
<wgt id='1886'> +3.8635173E-01 </wgt>
<wgt id='1887'> +4.0047200E-01 </wgt>
<wgt id='1888'> +4.0140484E-01 </wgt>
<wgt id='1889'> +3.9012367E-01 </wgt>
<wgt id='1890'> +4.0342492E-01 </wgt>
<wgt id='1891'> +3.9772508E-01 </wgt>
<wgt id='1892'> +3.9760465E-01 </wgt>
<wgt id='1893'> +3.9232174E-01 </wgt>
<wgt id='1894'> +4.0211301E-01 </wgt>
<wgt id='1895'> +4.0101390E-01 </wgt>
<wgt id='1896'> +3.9120365E-01 </wgt>
<wgt id='1897'> +3.9680850E-01 </wgt>
<wgt id='1898'> +3.9718265E-01 </wgt>
<wgt id='1899'> +3.9308802E-01 </wgt>
<wgt id='1900'> +3.9473304E-01 </wgt>
<wgt id='1901'> +3.8861389E-01 </wgt>
<wgt id='1902'> +3.8850816E-01 </wgt>
<wgt id='1903'> +3.9242485E-01 </wgt>
<wgt id='1904'> +3.9995753E-01 </wgt>
<wgt id='1905'> +3.9649515E-01 </wgt>
<wgt id='1906'> +3.9085039E-01 </wgt>
<wgt id='1907'> +3.9464127E-01 </wgt>
<wgt id='1908'> +3.9987035E-01 </wgt>
<wgt id='1909'> +3.9183232E-01 </wgt>
<wgt id='1910'> +3.9742678E-01 </wgt>
<wgt id='1911'> +3.7952265E-01 </wgt>
<wgt id='1912'> +3.9712438E-01 </wgt>
<wgt id='1913'> +3.9392807E-01 </wgt>
<wgt id='1914'> +4.0695549E-01 </wgt>
<wgt id='1915'> +4.0301226E-01 </wgt>
<wgt id='1916'> +3.8325964E-01 </wgt>
<wgt id='1917'> +3.9674692E-01 </wgt>
<wgt id='1918'> +4.1690851E-01 </wgt>
<wgt id='1919'> +3.9582821E-01 </wgt>
<wgt id='1920'> +4.0060262E-01 </wgt>
<wgt id='1921'> +3.9083600E-01 </wgt>
<wgt id='1922'> +4.0099861E-01 </wgt>
<wgt id='1923'> +4.0332512E-01 </wgt>
<wgt id='1924'> +4.0433227E-01 </wgt>
<wgt id='1925'> +4.0066024E-01 </wgt>
<wgt id='1926'> +3.9579376E-01 </wgt>
<wgt id='1927'> +3.9401117E-01 </wgt>
<wgt id='1928'> +3.9488748E-01 </wgt>
<wgt id='1929'> +3.8423052E-01 </wgt>
<wgt id='1930'> +3.8840218E-01 </wgt>
<wgt id='1931'> +4.0186947E-01 </wgt>
<wgt id='1932'> +4.0207522E-01 </wgt>
<wgt id='1933'> +3.8783075E-01 </wgt>
<wgt id='1934'> +4.0001272E-01 </wgt>
<wgt id='1935'> +3.9194661E-01 </wgt>
<wgt id='1936'> +3.8912920E-01 </wgt>
<wgt id='1937'> +3.8801731E-01 </wgt>
<wgt id='1938'> +4.0000052E-01 </wgt>
<wgt id='1939'> +3.9944073E-01 </wgt>
<wgt id='1940'> +4.0117579E-01 </wgt>
<wgt id='1941'> +3.8900878E-01 </wgt>
<wgt id='1942'> +4.1640692E-01 </wgt>
<wgt id='1943'> +3.9667915E-01 </wgt>
<wgt id='1944'> +3.9680153E-01 </wgt>
<wgt id='1945'> +4.0003367E-01 </wgt>
<wgt id='1946'> +3.8500130E-01 </wgt>
<wgt id='1947'> +3.9775440E-01 </wgt>
<wgt id='1948'> +3.9469032E-01 </wgt>
<wgt id='1949'> +3.9994859E-01 </wgt>
<wgt id='1950'> +3.9347408E-01 </wgt>
<wgt id='1951'> +3.9545645E-01 </wgt>
<wgt id='1952'> +3.9613186E-01 </wgt>
<wgt id='1953'> +3.9814875E-01 </wgt>
<wgt id='1954'> +3.9515983E-01 </wgt>
<wgt id='1955'> +3.9857755E-01 </wgt>
<wgt id='1956'> +3.9016871E-01 </wgt>
<wgt id='1957'> +4.0110406E-01 </wgt>
<wgt id='1958'> +3.9466797E-01 </wgt>
<wgt id='1959'> +3.9881507E-01 </wgt>
<wgt id='1960'> +4.0612156E-01 </wgt>
<wgt id='1961'> +3.9489632E-01 </wgt>
<wgt id='1962'> +3.9814109E-01 </wgt>
<wgt id='1963'> +3.9395576E-01 </wgt>
<wgt id='1964'> +3.9021908E-01 </wgt>
<wgt id='1965'> +4.0037590E-01 </wgt>
<wgt id='1966'> +3.9073088E-01 </wgt>
<wgt id='1967'> +3.9141185E-01 </wgt>
<wgt id='1968'> +3.9645297E-01 </wgt>
<wgt id='1969'> +3.9717149E-01 </wgt>
<wgt id='1970'> +3.9901821E-01 </wgt>
<wgt id='1971'> +3.9234623E-01 </wgt>
<wgt id='1972'> +4.0352942E-01 </wgt>
<wgt id='1973'> +3.9551936E-01 </wgt>
<wgt id='1974'> +3.9343245E-01 </wgt>
<wgt id='1975'> +3.8534812E-01 </wgt>
<wgt id='1976'> +4.0452335E-01 </wgt>
<wgt id='1977'> +3.9612398E-01 </wgt>
<wgt id='1978'> +3.9147947E-01 </wgt>
<wgt id='1979'> +3.9551213E-01 </wgt>
<wgt id='1980'> +3.9886802E-01 </wgt>
<wgt id='1981'> +3.9401071E-01 </wgt>
<wgt id='1982'> +4.0654829E-01 </wgt>
<wgt id='1983'> +3.7671207E-01 </wgt>
<wgt id='1984'> +3.9847490E-01 </wgt>
<wgt id='1985'> +3.9087354E-01 </wgt>
<wgt id='1986'> +4.1434074E-01 </wgt>
<wgt id='1987'> +3.9114014E-01 </wgt>
<wgt id='1988'> +3.8697813E-01 </wgt>
<wgt id='1989'> +3.8635173E-01 </wgt>
<wgt id='1990'> +4.0047200E-01 </wgt>
<wgt id='1991'> +4.0140484E-01 </wgt>
<wgt id='1992'> +3.9012367E-01 </wgt>
<wgt id='1993'> +4.0342492E-01 </wgt>
<wgt id='1994'> +3.9772508E-01 </wgt>
<wgt id='1995'> +3.9760465E-01 </wgt>
<wgt id='1996'> +3.9232174E-01 </wgt>
<wgt id='1997'> +4.0211301E-01 </wgt>
<wgt id='1998'> +4.0101390E-01 </wgt>
<wgt id='1999'> +3.9120365E-01 </wgt>
<wgt id='2000'> +3.9680850E-01 </wgt>
<wgt id='2001'> +3.9718265E-01 </wgt>
<wgt id='2002'> +3.9308802E-01 </wgt>
<wgt id='2003'> +3.9473304E-01 </wgt>
<wgt id='2004'> +3.8861389E-01 </wgt>
<wgt id='2005'> +3.8850816E-01 </wgt>
<wgt id='2006'> +3.9242485E-01 </wgt>
<wgt id='2007'> +3.9995753E-01 </wgt>
<wgt id='2008'> +3.9649515E-01 </wgt>
<wgt id='2009'> +3.9085039E-01 </wgt>
<wgt id='2010'> +3.9464127E-01 </wgt>
<wgt id='2011'> +3.9987035E-01 </wgt>
<wgt id='2012'> +3.9183232E-01 </wgt>
<wgt id='2013'> +3.9742678E-01 </wgt>
<wgt id='2014'> +3.7952265E-01 </wgt>
<wgt id='2015'> +3.9712438E-01 </wgt>
<wgt id='2016'> +3.9392807E-01 </wgt>
<wgt id='2017'> +4.0695549E-01 </wgt>
<wgt id='2018'> +4.0301226E-01 </wgt>
<wgt id='2019'> +3.8325964E-01 </wgt>
<wgt id='2020'> +3.9496474E-01 </wgt>
<wgt id='2021'> +3.9678573E-01 </wgt>
<wgt id='2022'> +3.9648764E-01 </wgt>
</rwgt>
</event>
<event>
13      2 +3.9556008E-01 9.17493400e+01 7.81860800e-03 1.19090500e-01
       21 -1    0    0  502  503 +0.0000000000e+00 +0.0000000000e+00 +2.9483937221e+02 2.9483937221e+02 0.0000000000e+00 0.0000e+00 1.0000e+00
       -2 -1    0    0    0  501 +0.0000000000e+00 +0.0000000000e+00 -9.8909613657e+02 9.8909613657e+02 2.5500000000e-03 0.0000e+00 1.0000e+00
 -8000001  2    1    2    0  503 +2.8500823884e+01 -1.9042093206e+01 -2.0760438699e+02 6.3582487522e+02 5.9999899347e+02 0.0000e+00 0.0000e+00
       -1  1    1    2    0  501 -3.3764503925e+01 +3.1132569739e+01 -5.6583801956e+02 5.6769881366e+02 5.0400000000e-03 0.0000e+00 1.0000e+00
        5  1    1    2  502    0 +5.2636800416e+00 -1.2090476533e+01 +7.9185642191e+01 8.0411819905e+01 4.6700000000e+00 0.0000e+00 -1.0000e+00
       -6  2    3    3    0  503 +2.5016814027e+02 +5.9737879468e+01 -2.5902948161e+00 3.0998282874e+02 1.7300269315e+02 0.0000e+00 0.0000e+00
       -5  1    6    6    0  503 +7.7775278995e+01 +8.7591303989e+01 +1.3056319851e+01 1.1795552953e+02 4.6700000000e+00 0.0000e+00 1.0000e+00
      -24  2    6    6    0    0 +1.7239286128e+02 -2.7853424521e+01 -1.5646614667e+01 1.9202729922e+02 7.8323401463e+01 0.0000e+00 0.0000e+00
      -16  1    8    8    0    0 +1.3311255639e+02 -2.4729337640e+01 -4.5204217327e+01 1.4273722034e+02 0.0000000000e+00 0.0000e+00 1.0000e+00
       15  1    8    8    0    0 +3.9280304892e+01 -3.1240868806e+00 +2.9557602661e+01 4.9290078871e+01 1.7770000000e+00 0.0000e+00 -1.0000e+00
       23  2    3    3    0    0 -2.2166731639e+02 -7.8779972675e+01 -2.0501409217e+02 3.2584204647e+02 9.3806065952e+01 0.0000e+00 0.0000e+00
        3  1   11   11  504    0 -1.3180125675e+02 +1.6859670112e+00 -9.3893658334e+01 1.6183461633e+02 1.0100000000e-01 0.0000e+00 -1.0000e+00
       -3  1   11   11    0  504 -8.9866059638e+01 -8.0465939686e+01 -1.1112043384e+02 1.6400743014e+02 1.0100000000e-01 0.0000e+00 1.0000e+00
<mgrwt>
<rscale>  1 0.64876593e+02</rscale>
<asrwt>0</asrwt>
<pdfrwt beam="1">  1       21 0.45359904e-01 0.91749343e+02</pdfrwt>
<pdfrwt beam="2">  1       -2 0.15216864e+00 0.45874687e+02</pdfrwt>
<totfact> 0.17561121e+02</totfact>
</mgrwt>
<rwgt>
<wgt id='1001'> +3.9556008E-01 </wgt>
<wgt id='1002'> +2.1975458E-01 </wgt>
<wgt id='1003'> +2.1968775E-01 </wgt>
<wgt id='1004'> +2.5881063E-01 </wgt>
<wgt id='1005'> +1.9271432E-01 </wgt>
<wgt id='1006'> +3.5444054E-01 </wgt>
<wgt id='1007'> +2.0285534E-01 </wgt>
<wgt id='1008'> +2.0279624E-01 </wgt>
<wgt id='1009'> +2.3716933E-01 </wgt>
<wgt id='1010'> +1.7882880E-01 </wgt>
<wgt id='1011'> +4.4791722E-01 </wgt>
<wgt id='1012'> +2.3981045E-01 </wgt>
<wgt id='1013'> +2.3973388E-01 </wgt>
<wgt id='1014'> +2.8492798E-01 </wgt>
<wgt id='1015'> +2.0899664E-01 </wgt>
<wgt id='1016'> +3.6263135E-01 </wgt>
<wgt id='1017'> +2.0381020E-01 </wgt>
<wgt id='1018'> +2.0375015E-01 </wgt>
<wgt id='1019'> +2.3973388E-01 </wgt>
<wgt id='1020'> +1.7949403E-01 </wgt>
<wgt id='1021'> +3.2493484E-01 </wgt>
<wgt id='1022'> +1.8813710E-01 </wgt>
<wgt id='1023'> +1.8808406E-01 </wgt>
<wgt id='1024'> +2.1968775E-01 </wgt>
<wgt id='1025'> +1.6656106E-01 </wgt>
<wgt id='1026'> +4.1062998E-01 </wgt>
<wgt id='1027'> +2.2241091E-01 </wgt>
<wgt id='1028'> +2.2234200E-01 </wgt>
<wgt id='1029'> +2.6392614E-01 </wgt>
<wgt id='1030'> +1.9465937E-01 </wgt>
<wgt id='1031'> +4.3293979E-01 </wgt>
<wgt id='1032'> +2.3724278E-01 </wgt>
<wgt id='1033'> +2.3716933E-01 </wgt>
<wgt id='1034'> +2.8055125E-01 </wgt>
<wgt id='1035'> +2.0789319E-01 </wgt>
<wgt id='1036'> +3.8793453E-01 </wgt>
<wgt id='1037'> +2.1899869E-01 </wgt>
<wgt id='1038'> +2.1893369E-01 </wgt>
<wgt id='1039'> +2.5709203E-01 </wgt>
<wgt id='1040'> +1.9291399E-01 </wgt>
<wgt id='1041'> +4.9024458E-01 </wgt>
<wgt id='1042'> +2.5889470E-01 </wgt>
<wgt id='1043'> +2.5881063E-01 </wgt>
<wgt id='1044'> +3.0886250E-01 </wgt>
<wgt id='1045'> +2.2545797E-01 </wgt>
<wgt id='1046'> +3.9556008E-01 </wgt>
<wgt id='1047'> +3.9556008E-01 </wgt>
<wgt id='1048'> +3.9556008E-01 </wgt>
<wgt id='1049'> +3.9620438E-01 </wgt>
<wgt id='1050'> +3.9384012E-01 </wgt>
<wgt id='1051'> +3.9603407E-01 </wgt>
<wgt id='1052'> +3.9863069E-01 </wgt>
<wgt id='1053'> +3.9038546E-01 </wgt>
<wgt id='1054'> +3.9623136E-01 </wgt>
<wgt id='1055'> +3.9416645E-01 </wgt>
<wgt id='1056'> +3.9257607E-01 </wgt>
<wgt id='1057'> +3.9754090E-01 </wgt>
<wgt id='1058'> +3.9467466E-01 </wgt>
<wgt id='1059'> +3.9730638E-01 </wgt>
<wgt id='1060'> +3.9496640E-01 </wgt>
<wgt id='1061'> +4.0060587E-01 </wgt>
<wgt id='1062'> +3.9336044E-01 </wgt>
<wgt id='1063'> +4.0166824E-01 </wgt>
<wgt id='1064'> +3.9634606E-01 </wgt>
<wgt id='1065'> +3.9596195E-01 </wgt>
<wgt id='1066'> +3.9199427E-01 </wgt>
<wgt id='1067'> +3.9759434E-01 </wgt>
<wgt id='1068'> +3.9804638E-01 </wgt>
<wgt id='1069'> +3.9367873E-01 </wgt>
<wgt id='1070'> +3.9673206E-01 </wgt>
<wgt id='1071'> +3.9589430E-01 </wgt>
<wgt id='1072'> +3.9324182E-01 </wgt>
<wgt id='1073'> +3.9625127E-01 </wgt>
<wgt id='1074'> +3.9583663E-01 </wgt>
<wgt id='1075'> +3.9905509E-01 </wgt>
<wgt id='1076'> +3.9484184E-01 </wgt>
<wgt id='1077'> +3.9635642E-01 </wgt>
<wgt id='1078'> +3.9722944E-01 </wgt>
<wgt id='1079'> +3.9610931E-01 </wgt>
<wgt id='1080'> +3.9837146E-01 </wgt>
<wgt id='1081'> +3.9395626E-01 </wgt>
<wgt id='1082'> +3.9606445E-01 </wgt>
<wgt id='1083'> +3.9305885E-01 </wgt>
<wgt id='1084'> +3.9888288E-01 </wgt>
<wgt id='1085'> +3.9542861E-01 </wgt>
<wgt id='1086'> +3.9361501E-01 </wgt>
<wgt id='1087'> +3.9597004E-01 </wgt>
<wgt id='1088'> +3.9660733E-01 </wgt>
<wgt id='1089'> +3.9461445E-01 </wgt>
<wgt id='1090'> +3.9635026E-01 </wgt>
<wgt id='1091'> +3.9467973E-01 </wgt>
<wgt id='1092'> +3.9307376E-01 </wgt>
<wgt id='1093'> +3.9609412E-01 </wgt>
<wgt id='1094'> +3.9681424E-01 </wgt>
<wgt id='1095'> +3.9255797E-01 </wgt>
<wgt id='1096'> +3.9721833E-01 </wgt>
<wgt id='1097'> +3.9245072E-01 </wgt>
<wgt id='1098'> +3.9776196E-01 </wgt>
<wgt id='1099'> +3.9813022E-01 </wgt>
<wgt id='1100'> +3.9431621E-01 </wgt>
<wgt id='1101'> +3.9415196E-01 </wgt>
<wgt id='1102'> +3.9659792E-01 </wgt>
<wgt id='1103'> +3.9928848E-01 </wgt>
<wgt id='1104'> +3.9575312E-01 </wgt>
<wgt id='1105'> +3.9511879E-01 </wgt>
<wgt id='1106'> +3.9744190E-01 </wgt>
<wgt id='1107'> +3.9589833E-01 </wgt>
<wgt id='1108'> +3.9789443E-01 </wgt>
<wgt id='1109'> +3.9588623E-01 </wgt>
<wgt id='1110'> +3.9615653E-01 </wgt>
<wgt id='1111'> +3.9132220E-01 </wgt>
<wgt id='1112'> +3.9561624E-01 </wgt>
<wgt id='1113'> +3.9412346E-01 </wgt>
<wgt id='1114'> +3.9784647E-01 </wgt>
<wgt id='1115'> +3.9663361E-01 </wgt>
<wgt id='1116'> +3.9596405E-01 </wgt>
<wgt id='1117'> +3.9514198E-01 </wgt>
<wgt id='1118'> +3.9466486E-01 </wgt>
<wgt id='1119'> +3.9156654E-01 </wgt>
<wgt id='1120'> +3.9679800E-01 </wgt>
<wgt id='1121'> +3.9625713E-01 </wgt>
<wgt id='1122'> +3.9342397E-01 </wgt>
<wgt id='1123'> +3.9555190E-01 </wgt>
<wgt id='1124'> +3.9496716E-01 </wgt>
<wgt id='1125'> +3.9578450E-01 </wgt>
<wgt id='1126'> +3.9610863E-01 </wgt>
<wgt id='1127'> +3.9394242E-01 </wgt>
<wgt id='1128'> +3.9855805E-01 </wgt>
<wgt id='1129'> +3.9472403E-01 </wgt>
<wgt id='1130'> +3.9603261E-01 </wgt>
<wgt id='1131'> +3.9449925E-01 </wgt>
<wgt id='1132'> +3.9710321E-01 </wgt>
<wgt id='1133'> +3.9490309E-01 </wgt>
<wgt id='1134'> +3.9637630E-01 </wgt>
<wgt id='1135'> +3.9390468E-01 </wgt>
<wgt id='1136'> +3.9502541E-01 </wgt>
<wgt id='1137'> +3.9674716E-01 </wgt>
<wgt id='1138'> +3.9481488E-01 </wgt>
<wgt id='1139'> +3.9929535E-01 </wgt>
<wgt id='1140'> +3.9412310E-01 </wgt>
<wgt id='1141'> +3.9576231E-01 </wgt>
<wgt id='1142'> +3.9644932E-01 </wgt>
<wgt id='1143'> +3.9646042E-01 </wgt>
<wgt id='1144'> +3.9508600E-01 </wgt>
<wgt id='1145'> +3.9684485E-01 </wgt>
<wgt id='1146'> +3.9576124E-01 </wgt>
<wgt id='1147'> +3.9663556E-01 </wgt>
<wgt id='1148'> +3.9556008E-01 </wgt>
<wgt id='1149'> +3.8497178E-01 </wgt>
<wgt id='1150'> +4.1951419E-01 </wgt>
<wgt id='1151'> +3.9770257E-01 </wgt>
<wgt id='1152'> +3.7066940E-01 </wgt>
<wgt id='1153'> +3.8852445E-01 </wgt>
<wgt id='1154'> +3.7260318E-01 </wgt>
<wgt id='1155'> +3.7231996E-01 </wgt>
<wgt id='1156'> +3.7334038E-01 </wgt>
<wgt id='1157'> +3.8136893E-01 </wgt>
<wgt id='1158'> +3.7398875E-01 </wgt>
<wgt id='1159'> +3.8751857E-01 </wgt>
<wgt id='1160'> +4.0204037E-01 </wgt>
<wgt id='1161'> +4.0382480E-01 </wgt>
<wgt id='1162'> +3.9862480E-01 </wgt>
<wgt id='1163'> +3.9233414E-01 </wgt>
<wgt id='1164'> +3.6992896E-01 </wgt>
<wgt id='1165'> +3.8045237E-01 </wgt>
<wgt id='1166'> +4.0637168E-01 </wgt>
<wgt id='1167'> +3.8049767E-01 </wgt>
<wgt id='1168'> +3.8118950E-01 </wgt>
<wgt id='1169'> +3.3528426E-01 </wgt>
<wgt id='1170'> +3.7554510E-01 </wgt>
<wgt id='1171'> +3.9613905E-01 </wgt>
<wgt id='1172'> +3.8927667E-01 </wgt>
<wgt id='1173'> +3.7066674E-01 </wgt>
<wgt id='1174'> +3.7770405E-01 </wgt>
<wgt id='1175'> +3.5342478E-01 </wgt>
<wgt id='1176'> +4.0255179E-01 </wgt>
<wgt id='1177'> +3.9316634E-01 </wgt>
<wgt id='1178'> +4.0164114E-01 </wgt>
<wgt id='1179'> +3.8526249E-01 </wgt>
<wgt id='1180'> +3.8317040E-01 </wgt>
<wgt id='1181'> +3.9915527E-01 </wgt>
<wgt id='1182'> +3.7075387E-01 </wgt>
<wgt id='1183'> +3.9727636E-01 </wgt>
<wgt id='1184'> +4.0561438E-01 </wgt>
<wgt id='1185'> +3.7422868E-01 </wgt>
<wgt id='1186'> +3.8217047E-01 </wgt>
<wgt id='1187'> +3.7192271E-01 </wgt>
<wgt id='1188'> +3.8748986E-01 </wgt>
<wgt id='1189'> +3.5378656E-01 </wgt>
<wgt id='1190'> +4.0431175E-01 </wgt>
<wgt id='1191'> +3.8929320E-01 </wgt>
<wgt id='1192'> +4.0923278E-01 </wgt>
<wgt id='1193'> +3.8723691E-01 </wgt>
<wgt id='1194'> +3.7008570E-01 </wgt>
<wgt id='1195'> +3.8265890E-01 </wgt>
<wgt id='1196'> +3.7774476E-01 </wgt>
<wgt id='1197'> +3.6728533E-01 </wgt>
<wgt id='1198'> +3.9932884E-01 </wgt>
<wgt id='1199'> +3.9360991E-01 </wgt>
<wgt id='1200'> +3.7948967E-01 </wgt>
<wgt id='1201'> +3.4604743E-01 </wgt>
<wgt id='1202'> +3.8907229E-01 </wgt>
<wgt id='1203'> +4.0532068E-01 </wgt>
<wgt id='1204'> +3.8833052E-01 </wgt>
<wgt id='1205'> +4.1708617E-01 </wgt>
<wgt id='1206'> +4.1067710E-01 </wgt>
<wgt id='1207'> +3.8053098E-01 </wgt>
<wgt id='1208'> +3.9541152E-01 </wgt>
<wgt id='1209'> +3.8300953E-01 </wgt>
<wgt id='1210'> +3.8708690E-01 </wgt>
<wgt id='1211'> +3.9882147E-01 </wgt>
<wgt id='1212'> +3.9578488E-01 </wgt>
<wgt id='1213'> +3.9894352E-01 </wgt>
<wgt id='1214'> +3.6919199E-01 </wgt>
<wgt id='1215'> +3.6833671E-01 </wgt>
<wgt id='1216'> +3.9119297E-01 </wgt>
<wgt id='1217'> +3.9054785E-01 </wgt>
<wgt id='1218'> +3.8264406E-01 </wgt>
<wgt id='1219'> +4.0451688E-01 </wgt>
<wgt id='1220'> +3.8876882E-01 </wgt>
<wgt id='1221'> +3.5222991E-01 </wgt>
<wgt id='1222'> +3.3774534E-01 </wgt>
<wgt id='1223'> +3.6481220E-01 </wgt>
<wgt id='1224'> +3.6304137E-01 </wgt>
<wgt id='1225'> +4.0656691E-01 </wgt>
<wgt id='1226'> +3.9514276E-01 </wgt>
<wgt id='1227'> +3.7537403E-01 </wgt>
<wgt id='1228'> +3.6430251E-01 </wgt>
<wgt id='1229'> +4.2420831E-01 </wgt>
<wgt id='1230'> +3.9333637E-01 </wgt>
<wgt id='1231'> +3.8045237E-01 </wgt>
<wgt id='1232'> +3.5123706E-01 </wgt>
<wgt id='1233'> +3.9966200E-01 </wgt>
<wgt id='1234'> +3.6763312E-01 </wgt>
<wgt id='1235'> +3.9765394E-01 </wgt>
<wgt id='1236'> +3.7507259E-01 </wgt>
<wgt id='1237'> +4.3837068E-01 </wgt>
<wgt id='1238'> +3.6263414E-01 </wgt>
<wgt id='1239'> +3.8941922E-01 </wgt>
<wgt id='1240'> +3.8851256E-01 </wgt>
<wgt id='1241'> +3.3043445E-01 </wgt>
<wgt id='1242'> +3.7339768E-01 </wgt>
<wgt id='1243'> +3.8840453E-01 </wgt>
<wgt id='1244'> +3.9783639E-01 </wgt>
<wgt id='1245'> +4.0681488E-01 </wgt>
<wgt id='1246'> +3.9046155E-01 </wgt>
<wgt id='1247'> +3.8354535E-01 </wgt>
<wgt id='1248'> +3.9534987E-01 </wgt>
<wgt id='1249'> +3.9147789E-01 </wgt>
<wgt id='1250'> +3.7696610E-01 </wgt>
<wgt id='1251'> +3.7302517E-01 </wgt>
<wgt id='1252'> +3.7764411E-01 </wgt>
<wgt id='1253'> +3.8766936E-01 </wgt>
<wgt id='1254'> +4.0836935E-01 </wgt>
<wgt id='1255'> +4.9733438E-01 </wgt>
<wgt id='1256'> +4.9487596E-01 </wgt>
<wgt id='1257'> +4.9879377E-01 </wgt>
<wgt id='1258'> +4.9134771E-01 </wgt>
<wgt id='1259'> +5.0044269E-01 </wgt>
<wgt id='1260'> +4.9787169E-01 </wgt>
<wgt id='1261'> +4.9667066E-01 </wgt>
<wgt id='1262'> +4.9830069E-01 </wgt>
<wgt id='1263'> +4.9674378E-01 </wgt>
<wgt id='1264'> +5.0014235E-01 </wgt>
<wgt id='1265'> +4.9551381E-01 </wgt>
<wgt id='1266'> +4.9673465E-01 </wgt>
<wgt id='1267'> +4.9795288E-01 </wgt>
<wgt id='1268'> +4.9790948E-01 </wgt>
<wgt id='1269'> +4.9668121E-01 </wgt>
<wgt id='1270'> +4.8706017E-01 </wgt>
<wgt id='1271'> +5.0901352E-01 </wgt>
<wgt id='1272'> +4.9810936E-01 </wgt>
<wgt id='1273'> +4.9682556E-01 </wgt>
<wgt id='1274'> +5.0551115E-01 </wgt>
<wgt id='1275'> +4.8786999E-01 </wgt>
<wgt id='1276'> +4.9517331E-01 </wgt>
<wgt id='1277'> +5.0020056E-01 </wgt>
<wgt id='1278'> +5.0773756E-01 </wgt>
<wgt id='1279'> +4.8911476E-01 </wgt>
<wgt id='1280'> +5.0244167E-01 </wgt>
<wgt id='1281'> +4.8047520E-01 </wgt>
<wgt id='1282'> +4.9896310E-01 </wgt>
<wgt id='1283'> +4.9384396E-01 </wgt>
<wgt id='1284'> +4.8925394E-01 </wgt>
<wgt id='1285'> +5.0537877E-01 </wgt>
<wgt id='1286'> +5.0009848E-01 </wgt>
<wgt id='1287'> +4.9752893E-01 </wgt>
<wgt id='1288'> +5.0038958E-01 </wgt>
<wgt id='1289'> +4.9494182E-01 </wgt>
<wgt id='1290'> +4.9535327E-01 </wgt>
<wgt id='1291'> +4.9799179E-01 </wgt>
<wgt id='1292'> +5.0116397E-01 </wgt>
<wgt id='1293'> +4.9224353E-01 </wgt>
<wgt id='1294'> +4.9092054E-01 </wgt>
<wgt id='1295'> +4.9971648E-01 </wgt>
<wgt id='1296'> +4.3481254E-01 </wgt>
<wgt id='1297'> +4.3634642E-01 </wgt>
<wgt id='1298'> +4.3356312E-01 </wgt>
<wgt id='1299'> +4.4011153E-01 </wgt>
<wgt id='1300'> +4.2890670E-01 </wgt>
<wgt id='1301'> +4.3237470E-01 </wgt>
<wgt id='1302'> +4.3848443E-01 </wgt>
<wgt id='1303'> +4.2878626E-01 </wgt>
<wgt id='1304'> +4.3890444E-01 </wgt>
<wgt id='1305'> +4.3552961E-01 </wgt>
<wgt id='1306'> +4.3391139E-01 </wgt>
<wgt id='1307'> +4.3961372E-01 </wgt>
<wgt id='1308'> +4.3179760E-01 </wgt>
<wgt id='1309'> +4.3334455E-01 </wgt>
<wgt id='1310'> +4.3679772E-01 </wgt>
<wgt id='1311'> +4.3157597E-01 </wgt>
<wgt id='1312'> +4.3600626E-01 </wgt>
<wgt id='1313'> +4.3129097E-01 </wgt>
<wgt id='1314'> +4.3920418E-01 </wgt>
<wgt id='1315'> +4.3408733E-01 </wgt>
<wgt id='1316'> +4.3552210E-01 </wgt>
<wgt id='1317'> +4.4006839E-01 </wgt>
<wgt id='1318'> +4.2621614E-01 </wgt>
<wgt id='1319'> +4.4798741E-01 </wgt>
<wgt id='1320'> +4.2777939E-01 </wgt>
<wgt id='1321'> +4.4633136E-01 </wgt>
<wgt id='1322'> +4.2957358E-01 </wgt>
<wgt id='1323'> +4.3673153E-01 </wgt>
<wgt id='1324'> +4.3323404E-01 </wgt>
<wgt id='1325'> +4.3176184E-01 </wgt>
<wgt id='1326'> +4.3698374E-01 </wgt>
<wgt id='1327'> +4.2951978E-01 </wgt>
<wgt id='1328'> +4.3716424E-01 </wgt>
<wgt id='1329'> +4.3323001E-01 </wgt>
<wgt id='1330'> +4.3598057E-01 </wgt>
<wgt id='1331'> +4.3926626E-01 </wgt>
<wgt id='1332'> +4.3234093E-01 </wgt>
<wgt id='1333'> +4.4018737E-01 </wgt>
<wgt id='1334'> +4.3033765E-01 </wgt>
<wgt id='1335'> +4.3438070E-01 </wgt>
<wgt id='1336'> +4.3490033E-01 </wgt>
<wgt id='1337'> +4.3481254E-01 </wgt>
<wgt id='1338'> +4.3513212E-01 </wgt>
<wgt id='1339'> +4.3500179E-01 </wgt>
<wgt id='1340'> +4.3472822E-01 </wgt>
<wgt id='1341'> +4.3467534E-01 </wgt>
<wgt id='1342'> +4.3460854E-01 </wgt>
<wgt id='1343'> +4.3445184E-01 </wgt>
<wgt id='1344'> +4.0622873E-01 </wgt>
<wgt id='1345'> +4.0769849E-01 </wgt>
<wgt id='1346'> +4.0488616E-01 </wgt>
<wgt id='1347'> +4.0276039E-01 </wgt>
<wgt id='1348'> +4.0883210E-01 </wgt>
<wgt id='1349'> +3.9959741E-01 </wgt>
<wgt id='1350'> +4.1197766E-01 </wgt>
<wgt id='1351'> +4.0615572E-01 </wgt>
<wgt id='1352'> +4.0641370E-01 </wgt>
<wgt id='1353'> +4.0991685E-01 </wgt>
<wgt id='1354'> +4.0378856E-01 </wgt>
<wgt id='1355'> +4.0730389E-01 </wgt>
<wgt id='1356'> +4.0551944E-01 </wgt>
<wgt id='1357'> +4.1139475E-01 </wgt>
<wgt id='1358'> +4.0315723E-01 </wgt>
<wgt id='1359'> +4.0698507E-01 </wgt>
<wgt id='1360'> +4.0455584E-01 </wgt>
<wgt id='1361'> +4.0307469E-01 </wgt>
<wgt id='1362'> +4.0964674E-01 </wgt>
<wgt id='1363'> +4.0703306E-01 </wgt>
<wgt id='1364'> +4.0547330E-01 </wgt>
<wgt id='1365'> +4.2313920E-01 </wgt>
<wgt id='1366'> +3.9983467E-01 </wgt>
<wgt id='1367'> +4.1644987E-01 </wgt>
<wgt id='1368'> +4.0152376E-01 </wgt>
<wgt id='1369'> +4.1011883E-01 </wgt>
<wgt id='1370'> +4.0182422E-01 </wgt>
<wgt id='1371'> +4.0444266E-01 </wgt>
<wgt id='1372'> +4.0921736E-01 </wgt>
<wgt id='1373'> +4.1000119E-01 </wgt>
<wgt id='1374'> +4.0514162E-01 </wgt>
<wgt id='1375'> +4.0333036E-01 </wgt>
<wgt id='1376'> +4.0739452E-01 </wgt>
<wgt id='1377'> +4.0585496E-01 </wgt>
<wgt id='1378'> +4.0720680E-01 </wgt>
<wgt id='1379'> +4.0230353E-01 </wgt>
<wgt id='1380'> +4.1007796E-01 </wgt>
<wgt id='1381'> +4.0479036E-01 </wgt>
<wgt id='1382'> +4.0756101E-01 </wgt>
<wgt id='1383'> +4.0620378E-01 </wgt>
<wgt id='1384'> +4.0669719E-01 </wgt>
<wgt id='1385'> +4.0622873E-01 </wgt>
<wgt id='1386'> +4.0658328E-01 </wgt>
<wgt id='1387'> +4.0636515E-01 </wgt>
<wgt id='1388'> +4.0635499E-01 </wgt>
<wgt id='1389'> +4.0611210E-01 </wgt>
<wgt id='1390'> +4.0606569E-01 </wgt>
<wgt id='1391'> +4.0613629E-01 </wgt>
<wgt id='1392'> +4.5735941E-01 </wgt>
<wgt id='1393'> +4.5635369E-01 </wgt>
<wgt id='1394'> +4.5832702E-01 </wgt>
<wgt id='1395'> +4.5925228E-01 </wgt>
<wgt id='1396'> +4.5595465E-01 </wgt>
<wgt id='1397'> +4.5810256E-01 </wgt>
<wgt id='1398'> +4.5650282E-01 </wgt>
<wgt id='1399'> +4.5417314E-01 </wgt>
<wgt id='1400'> +4.6112656E-01 </wgt>
<wgt id='1401'> +4.5231148E-01 </wgt>
<wgt id='1402'> +4.6346281E-01 </wgt>
<wgt id='1403'> +4.5666387E-01 </wgt>
<wgt id='1404'> +4.5869278E-01 </wgt>
<wgt id='1405'> +4.5429681E-01 </wgt>
<wgt id='1406'> +4.6143640E-01 </wgt>
<wgt id='1407'> +4.6010884E-01 </wgt>
<wgt id='1408'> +4.5532435E-01 </wgt>
<wgt id='1409'> +4.5132219E-01 </wgt>
<wgt id='1410'> +4.6404553E-01 </wgt>
<wgt id='1411'> +4.5414371E-01 </wgt>
<wgt id='1412'> +4.5974587E-01 </wgt>
<wgt id='1413'> +4.6022132E-01 </wgt>
<wgt id='1414'> +4.5421895E-01 </wgt>
<wgt id='1415'> +4.5118954E-01 </wgt>
<wgt id='1416'> +4.6325406E-01 </wgt>
<wgt id='1417'> +4.6033090E-01 </wgt>
<wgt id='1418'> +4.5372226E-01 </wgt>
<wgt id='1419'> +4.5644554E-01 </wgt>
<wgt id='1420'> +4.5819492E-01 </wgt>
<wgt id='1421'> +4.4611026E-01 </wgt>
<wgt id='1422'> +4.7081556E-01 </wgt>
<wgt id='1423'> +4.6778413E-01 </wgt>
<wgt id='1424'> +4.5101376E-01 </wgt>
<wgt id='1425'> +4.5831627E-01 </wgt>
<wgt id='1426'> +4.5713903E-01 </wgt>
<wgt id='1427'> +4.5531528E-01 </wgt>
<wgt id='1428'> +4.6202005E-01 </wgt>
<wgt id='1429'> +4.5544241E-01 </wgt>
<wgt id='1430'> +4.5887518E-01 </wgt>
<wgt id='1431'> +4.5371331E-01 </wgt>
<wgt id='1432'> +4.5957652E-01 </wgt>
<wgt id='1433'> +4.5012658E-01 </wgt>
<wgt id='1434'> +4.6921015E-01 </wgt>
<wgt id='1435'> +4.5906432E-01 </wgt>
<wgt id='1436'> +4.5268182E-01 </wgt>
<wgt id='1437'> +4.5639755E-01 </wgt>
<wgt id='1438'> +4.6073433E-01 </wgt>
<wgt id='1439'> +4.6190898E-01 </wgt>
<wgt id='1440'> +4.5319534E-01 </wgt>
<wgt id='1441'> +4.6680294E-01 </wgt>
<wgt id='1442'> +4.6148779E-01 </wgt>
<wgt id='1443'> +4.5594940E-01 </wgt>
<wgt id='1444'> +4.5484327E-01 </wgt>
<wgt id='1445'> +4.5704754E-01 </wgt>
<wgt id='1446'> +4.5794228E-01 </wgt>
<wgt id='1447'> +4.5455810E-01 </wgt>
<wgt id='1448'> +4.5667141E-01 </wgt>
<wgt id='1449'> +4.5519802E-01 </wgt>
<wgt id='1450'> +4.5283731E-01 </wgt>
<wgt id='1451'> +4.5937840E-01 </wgt>
<wgt id='1452'> +4.5083808E-01 </wgt>
<wgt id='1453'> +4.6088483E-01 </wgt>
<wgt id='1454'> +4.5487383E-01 </wgt>
<wgt id='1455'> +4.5809264E-01 </wgt>
<wgt id='1456'> +4.5270593E-01 </wgt>
<wgt id='1457'> +4.6165153E-01 </wgt>
<wgt id='1458'> +4.5964950E-01 </wgt>
<wgt id='1459'> +4.5378494E-01 </wgt>
<wgt id='1460'> +4.4884517E-01 </wgt>
<wgt id='1461'> +4.6414279E-01 </wgt>
<wgt id='1462'> +4.5514690E-01 </wgt>
<wgt id='1463'> +4.5658209E-01 </wgt>
<wgt id='1464'> +4.5795616E-01 </wgt>
<wgt id='1465'> +4.5323461E-01 </wgt>
<wgt id='1466'> +4.4689696E-01 </wgt>
<wgt id='1467'> +4.6190360E-01 </wgt>
<wgt id='1468'> +4.5437846E-01 </wgt>
<wgt id='1469'> +4.5758838E-01 </wgt>
<wgt id='1470'> +4.5518460E-01 </wgt>
<wgt id='1471'> +4.5663215E-01 </wgt>
<wgt id='1472'> +4.4543442E-01 </wgt>
<wgt id='1473'> +4.6890535E-01 </wgt>
<wgt id='1474'> +4.6226389E-01 </wgt>
<wgt id='1475'> +4.5038172E-01 </wgt>
<wgt id='1476'> +4.5636767E-01 </wgt>
<wgt id='1477'> +4.5684560E-01 </wgt>
<wgt id='1478'> +4.5396639E-01 </wgt>
<wgt id='1479'> +4.6102451E-01 </wgt>
<wgt id='1480'> +4.5403700E-01 </wgt>
<wgt id='1481'> +4.5745476E-01 </wgt>
<wgt id='1482'> +4.5224642E-01 </wgt>
<wgt id='1483'> +4.5855860E-01 </wgt>
<wgt id='1484'> +4.4872058E-01 </wgt>
<wgt id='1485'> +4.6698847E-01 </wgt>
<wgt id='1486'> +4.5910337E-01 </wgt>
<wgt id='1487'> +4.5144394E-01 </wgt>
<wgt id='1488'> +4.5477989E-01 </wgt>
<wgt id='1489'> +4.5962477E-01 </wgt>
<wgt id='1490'> +4.6345526E-01 </wgt>
<wgt id='1491'> +4.5440526E-01 </wgt>
<wgt id='1492'> +4.6805223E-01 </wgt>
<wgt id='1493'> +4.6142928E-01 </wgt>
<wgt id='1494'> +4.3847517E-01 </wgt>
<wgt id='1495'> +4.3642113E-01 </wgt>
<wgt id='1496'> +4.3751130E-01 </wgt>
<wgt id='1497'> +4.3825484E-01 </wgt>
<wgt id='1498'> +4.3964136E-01 </wgt>
<wgt id='1499'> +4.3886196E-01 </wgt>
<wgt id='1500'> +4.2930537E-01 </wgt>
<wgt id='1501'> +4.3185392E-01 </wgt>
<wgt id='1502'> +4.3408061E-01 </wgt>
<wgt id='1503'> +4.3588952E-01 </wgt>
<wgt id='1504'> +4.3751054E-01 </wgt>
<wgt id='1505'> +4.4043840E-01 </wgt>
<wgt id='1506'> +4.4167170E-01 </wgt>
<wgt id='1507'> +4.4283013E-01 </wgt>
<wgt id='1508'> +4.3886196E-01 </wgt>
<wgt id='1509'> +4.3948098E-01 </wgt>
<wgt id='1510'> +4.3915292E-01 </wgt>
<wgt id='1511'> +4.3857709E-01 </wgt>
<wgt id='1512'> +4.3866291E-01 </wgt>
<wgt id='1513'> +4.2115969E-01 </wgt>
<wgt id='1514'> +4.2008941E-01 </wgt>
<wgt id='1515'> +4.2253668E-01 </wgt>
<wgt id='1516'> +4.2054095E-01 </wgt>
<wgt id='1517'> +4.2169944E-01 </wgt>
<wgt id='1518'> +4.2449711E-01 </wgt>
<wgt id='1519'> +4.1977793E-01 </wgt>
<wgt id='1520'> +4.1808631E-01 </wgt>
<wgt id='1521'> +4.2421986E-01 </wgt>
<wgt id='1522'> +4.1841442E-01 </wgt>
<wgt id='1523'> +4.2380498E-01 </wgt>
<wgt id='1524'> +4.2808985E-01 </wgt>
<wgt id='1525'> +4.1812422E-01 </wgt>
<wgt id='1526'> +4.1884176E-01 </wgt>
<wgt id='1527'> +4.2401273E-01 </wgt>
<wgt id='1528'> +4.1959308E-01 </wgt>
<wgt id='1529'> +4.2287757E-01 </wgt>
<wgt id='1530'> +4.1722050E-01 </wgt>
<wgt id='1531'> +4.2332078E-01 </wgt>
<wgt id='1532'> +4.1924175E-01 </wgt>
<wgt id='1533'> +4.2378777E-01 </wgt>
<wgt id='1534'> +4.1597893E-01 </wgt>
<wgt id='1535'> +4.2474752E-01 </wgt>
<wgt id='1536'> +4.2238270E-01 </wgt>
<wgt id='1537'> +4.2002632E-01 </wgt>
<wgt id='1538'> +4.2508072E-01 </wgt>
<wgt id='1539'> +4.1132538E-01 </wgt>
<wgt id='1540'> +4.2073799E-01 </wgt>
<wgt id='1541'> +4.2139417E-01 </wgt>
<wgt id='1542'> +4.2368010E-01 </wgt>
<wgt id='1543'> +4.1480494E-01 </wgt>
<wgt id='1544'> +4.2760667E-01 </wgt>
<wgt id='1545'> +4.0922632E-01 </wgt>
<wgt id='1546'> +4.1755503E-01 </wgt>
<wgt id='1547'> +4.2916941E-01 </wgt>
<wgt id='1548'> +4.2537310E-01 </wgt>
<wgt id='1549'> +4.1950931E-01 </wgt>
<wgt id='1550'> +4.1827300E-01 </wgt>
<wgt id='1551'> +4.2532823E-01 </wgt>
<wgt id='1552'> +4.1636705E-01 </wgt>
<wgt id='1553'> +4.2312964E-01 </wgt>
<wgt id='1554'> +4.2483718E-01 </wgt>
<wgt id='1555'> +4.1287315E-01 </wgt>
<wgt id='1556'> +4.2340005E-01 </wgt>
<wgt id='1557'> +4.3507824E-01 </wgt>
<wgt id='1558'> +4.1623409E-01 </wgt>
<wgt id='1559'> +4.2595003E-01 </wgt>
<wgt id='1560'> +4.2490869E-01 </wgt>
<wgt id='1561'> +4.1934652E-01 </wgt>
<wgt id='1562'> +4.1882879E-01 </wgt>
<wgt id='1563'> +4.2160524E-01 </wgt>
<wgt id='1564'> +4.2115969E-01 </wgt>
<wgt id='1565'> +4.2036538E-01 </wgt>
<wgt id='1566'> +4.2108590E-01 </wgt>
<wgt id='1567'> +4.2124007E-01 </wgt>
<wgt id='1568'> +4.1225278E-01 </wgt>
<wgt id='1569'> +4.1478449E-01 </wgt>
<wgt id='1570'> +4.1674111E-01 </wgt>
<wgt id='1571'> +4.1797248E-01 </wgt>
<wgt id='1572'> +4.1987883E-01 </wgt>
<wgt id='1573'> +4.2240880E-01 </wgt>
<wgt id='1574'> +4.2271027E-01 </wgt>
<wgt id='1575'> +4.2365939E-01 </wgt>
<wgt id='1576'> +4.2124007E-01 </wgt>
<wgt id='1577'> +4.2185354E-01 </wgt>
<wgt id='1578'> +4.2154711E-01 </wgt>
<wgt id='1579'> +4.2106020E-01 </wgt>
<wgt id='1580'> +4.2091198E-01 </wgt>
<wgt id='1581'> +4.1179925E-01 </wgt>
<wgt id='1582'> +4.1009750E-01 </wgt>
<wgt id='1583'> +4.2365376E-01 </wgt>
<wgt id='1584'> +4.1128369E-01 </wgt>
<wgt id='1585'> +4.1238431E-01 </wgt>
<wgt id='1586'> +4.1303751E-01 </wgt>
<wgt id='1587'> +4.1525791E-01 </wgt>
<wgt id='1588'> +4.1200493E-01 </wgt>
<wgt id='1589'> +4.1300579E-01 </wgt>
<wgt id='1590'> +3.9227154E-01 </wgt>
<wgt id='1591'> +4.1146608E-01 </wgt>
<wgt id='1592'> +4.1152730E-01 </wgt>
<wgt id='1593'> +4.1280408E-01 </wgt>
<wgt id='1594'> +4.0787428E-01 </wgt>
<wgt id='1595'> +4.1193451E-01 </wgt>
<wgt id='1596'> +4.1382826E-01 </wgt>
<wgt id='1597'> +4.1368960E-01 </wgt>
<wgt id='1598'> +4.1750486E-01 </wgt>
<wgt id='1599'> +4.1025244E-01 </wgt>
<wgt id='1600'> +4.0895047E-01 </wgt>
<wgt id='1601'> +4.0970888E-01 </wgt>
<wgt id='1602'> +4.1069293E-01 </wgt>
<wgt id='1603'> +4.0837059E-01 </wgt>
<wgt id='1604'> +4.1274810E-01 </wgt>
<wgt id='1605'> +4.2471996E-01 </wgt>
<wgt id='1606'> +4.0979667E-01 </wgt>
<wgt id='1607'> +4.1326513E-01 </wgt>
<wgt id='1608'> +4.0810941E-01 </wgt>
<wgt id='1609'> +4.1074918E-01 </wgt>
<wgt id='1610'> +4.1018742E-01 </wgt>
<wgt id='1611'> +4.1278830E-01 </wgt>
<wgt id='1612'> +3.9212928E-01 </wgt>
<wgt id='1613'> +3.9192900E-01 </wgt>
<wgt id='1614'> +3.9260986E-01 </wgt>
<wgt id='1615'> +3.9172375E-01 </wgt>
<wgt id='1616'> +3.9358651E-01 </wgt>
<wgt id='1617'> +3.9193258E-01 </wgt>
<wgt id='1618'> +3.9134377E-01 </wgt>
<wgt id='1619'> +3.9337948E-01 </wgt>
<wgt id='1620'> +3.9271185E-01 </wgt>
<wgt id='1621'> +3.9440567E-01 </wgt>
<wgt id='1622'> +3.9059940E-01 </wgt>
<wgt id='1623'> +3.8975866E-01 </wgt>
<wgt id='1624'> +3.9396242E-01 </wgt>
<wgt id='1625'> +3.8988567E-01 </wgt>
<wgt id='1626'> +3.9230197E-01 </wgt>
<wgt id='1627'> +3.9296121E-01 </wgt>
<wgt id='1628'> +3.9413236E-01 </wgt>
<wgt id='1629'> +3.9097759E-01 </wgt>
<wgt id='1630'> +3.8964584E-01 </wgt>
<wgt id='1631'> +3.9185200E-01 </wgt>
<wgt id='1632'> +3.9202737E-01 </wgt>
<wgt id='1633'> +3.9354898E-01 </wgt>
<wgt id='1634'> +3.9262576E-01 </wgt>
<wgt id='1635'> +3.9069470E-01 </wgt>
<wgt id='1636'> +3.9314909E-01 </wgt>
<wgt id='1637'> +3.9304342E-01 </wgt>
<wgt id='1638'> +3.8985874E-01 </wgt>
<wgt id='1639'> +3.9034531E-01 </wgt>
<wgt id='1640'> +3.9198588E-01 </wgt>
<wgt id='1641'> +3.9355481E-01 </wgt>
<wgt id='1642'> +3.9105900E-01 </wgt>
<wgt id='1643'> +3.9479797E-01 </wgt>
<wgt id='1644'> +3.9482578E-01 </wgt>
<wgt id='1645'> +3.9199239E-01 </wgt>
<wgt id='1646'> +3.9065369E-01 </wgt>
<wgt id='1647'> +3.9869413E-01 </wgt>
<wgt id='1648'> +3.9483987E-01 </wgt>
<wgt id='1649'> +3.8909447E-01 </wgt>
<wgt id='1650'> +3.9434432E-01 </wgt>
<wgt id='1651'> +3.9128826E-01 </wgt>
<wgt id='1652'> +3.9273633E-01 </wgt>
<wgt id='1653'> +3.9253181E-01 </wgt>
<wgt id='1654'> +3.9336264E-01 </wgt>
<wgt id='1655'> +3.8992146E-01 </wgt>
<wgt id='1656'> +3.9307451E-01 </wgt>
<wgt id='1657'> +3.8958256E-01 </wgt>
<wgt id='1658'> +3.9265508E-01 </wgt>
<wgt id='1659'> +3.9190585E-01 </wgt>
<wgt id='1660'> +3.9536647E-01 </wgt>
<wgt id='1661'> +3.9453437E-01 </wgt>
<wgt id='1662'> +3.9180490E-01 </wgt>
<wgt id='1663'> +3.9343750E-01 </wgt>
<wgt id='1664'> +3.9296397E-01 </wgt>
<wgt id='1665'> +3.9199221E-01 </wgt>
<wgt id='1666'> +3.9221285E-01 </wgt>
<wgt id='1667'> +3.9291279E-01 </wgt>
<wgt id='1668'> +3.9286600E-01 </wgt>
<wgt id='1669'> +3.9028230E-01 </wgt>
<wgt id='1670'> +3.9259118E-01 </wgt>
<wgt id='1671'> +3.8945199E-01 </wgt>
<wgt id='1672'> +3.8889961E-01 </wgt>
<wgt id='1673'> +3.9008400E-01 </wgt>
<wgt id='1674'> +3.9242991E-01 </wgt>
<wgt id='1675'> +3.9193173E-01 </wgt>
<wgt id='1676'> +3.8767648E-01 </wgt>
<wgt id='1677'> +3.9264198E-01 </wgt>
<wgt id='1678'> +3.9279186E-01 </wgt>
<wgt id='1679'> +3.9155766E-01 </wgt>
<wgt id='1680'> +3.9196627E-01 </wgt>
<wgt id='1681'> +3.9418364E-01 </wgt>
<wgt id='1682'> +3.9214715E-01 </wgt>
<wgt id='1683'> +3.9260048E-01 </wgt>
<wgt id='1684'> +3.9435026E-01 </wgt>
<wgt id='1685'> +3.9194177E-01 </wgt>
<wgt id='1686'> +3.9124072E-01 </wgt>
<wgt id='1687'> +3.9567581E-01 </wgt>
<wgt id='1688'> +3.9507387E-01 </wgt>
<wgt id='1689'> +3.9434916E-01 </wgt>
<wgt id='1690'> +3.9237073E-01 </wgt>
<wgt id='1691'> +3.9329176E-01 </wgt>
<wgt id='1692'> +3.9263708E-01 </wgt>
<wgt id='1693'> +3.9081624E-01 </wgt>
<wgt id='1694'> +3.9254809E-01 </wgt>
<wgt id='1695'> +3.9058525E-01 </wgt>
<wgt id='1696'> +3.9411682E-01 </wgt>
<wgt id='1697'> +3.9053464E-01 </wgt>
<wgt id='1698'> +3.9318215E-01 </wgt>
<wgt id='1699'> +3.9047544E-01 </wgt>
<wgt id='1700'> +3.9374527E-01 </wgt>
<wgt id='1701'> +3.9137065E-01 </wgt>
<wgt id='1702'> +3.8958054E-01 </wgt>
<wgt id='1703'> +3.9103872E-01 </wgt>
<wgt id='1704'> +3.9436154E-01 </wgt>
<wgt id='1705'> +3.9116282E-01 </wgt>
<wgt id='1706'> +3.9444369E-01 </wgt>
<wgt id='1707'> +3.9316154E-01 </wgt>
<wgt id='1708'> +3.9054628E-01 </wgt>
<wgt id='1709'> +3.9334890E-01 </wgt>
<wgt id='1710'> +3.9068331E-01 </wgt>
<wgt id='1711'> +3.9432318E-01 </wgt>
<wgt id='1712'> +3.9099003E-01 </wgt>
<wgt id='1713'> +3.9064987E-01 </wgt>
<wgt id='1714'> +3.9267251E-01 </wgt>
<wgt id='1715'> +4.2091828E-01 </wgt>
<wgt id='1716'> +4.4445709E-01 </wgt>
<wgt id='1717'> +4.2873030E-01 </wgt>
<wgt id='1718'> +4.0661737E-01 </wgt>
<wgt id='1719'> +4.2827565E-01 </wgt>
<wgt id='1720'> +4.4661301E-01 </wgt>
<wgt id='1721'> +4.3379877E-01 </wgt>
<wgt id='1722'> +4.5384634E-01 </wgt>
<wgt id='1723'> +3.9769996E-01 </wgt>
<wgt id='1724'> +4.1678126E-01 </wgt>
<wgt id='1725'> +4.4382300E-01 </wgt>
<wgt id='1726'> +4.1910475E-01 </wgt>
<wgt id='1727'> +4.2806355E-01 </wgt>
<wgt id='1728'> +4.1548333E-01 </wgt>
<wgt id='1729'> +4.0545663E-01 </wgt>
<wgt id='1730'> +4.3095700E-01 </wgt>
<wgt id='1731'> +4.5190716E-01 </wgt>
<wgt id='1732'> +4.2492269E-01 </wgt>
<wgt id='1733'> +4.1814104E-01 </wgt>
<wgt id='1734'> +4.0472113E-01 </wgt>
<wgt id='1735'> +3.7730940E-01 </wgt>
<wgt id='1736'> +3.9792535E-01 </wgt>
<wgt id='1737'> +4.1365030E-01 </wgt>
<wgt id='1738'> +4.0151590E-01 </wgt>
<wgt id='1739'> +4.5019730E-01 </wgt>
<wgt id='1740'> +4.2889214E-01 </wgt>
<wgt id='1741'> +4.3504671E-01 </wgt>
<wgt id='1742'> +4.4694091E-01 </wgt>
<wgt id='1743'> +4.1741877E-01 </wgt>
<wgt id='1744'> +4.3558664E-01 </wgt>
<wgt id='1745'> +3.7695408E-01 </wgt>
<wgt id='1746'> +4.5630703E-01 </wgt>
<wgt id='1747'> +4.0828200E-01 </wgt>
<wgt id='1748'> +4.1445543E-01 </wgt>
<wgt id='1749'> +4.1479707E-01 </wgt>
<wgt id='1750'> +4.4651341E-01 </wgt>
<wgt id='1751'> +4.3342483E-01 </wgt>
<wgt id='1752'> +4.0374947E-01 </wgt>
<wgt id='1753'> +4.1459243E-01 </wgt>
<wgt id='1754'> +3.5822398E-01 </wgt>
<wgt id='1755'> +4.1203625E-01 </wgt>
<wgt id='1756'> +4.2588558E-01 </wgt>
<wgt id='1757'> +4.2987084E-01 </wgt>
<wgt id='1758'> +4.1580655E-01 </wgt>
<wgt id='1759'> +4.1000705E-01 </wgt>
<wgt id='1760'> +4.3185922E-01 </wgt>
<wgt id='1761'> +4.2984511E-01 </wgt>
<wgt id='1762'> +4.2806355E-01 </wgt>
<wgt id='1763'> +4.1472615E-01 </wgt>
<wgt id='1764'> +4.1310776E-01 </wgt>
<wgt id='1765'> +4.1815056E-01 </wgt>
<wgt id='1766'> +4.1998168E-01 </wgt>
<wgt id='1767'> +4.5240323E-01 </wgt>
<wgt id='1768'> +4.4635901E-01 </wgt>
<wgt id='1769'> +4.3362233E-01 </wgt>
<wgt id='1770'> +4.3828745E-01 </wgt>
<wgt id='1771'> +4.2642679E-01 </wgt>
<wgt id='1772'> +4.3196474E-01 </wgt>
<wgt id='1773'> +4.1471221E-01 </wgt>
<wgt id='1774'> +4.2086429E-01 </wgt>
<wgt id='1775'> +4.2089432E-01 </wgt>
<wgt id='1776'> +4.0675944E-01 </wgt>
<wgt id='1777'> +4.3816445E-01 </wgt>
<wgt id='1778'> +4.0492041E-01 </wgt>
<wgt id='1779'> +4.3227659E-01 </wgt>
<wgt id='1780'> +4.1987982E-01 </wgt>
<wgt id='1781'> +4.0549724E-01 </wgt>
<wgt id='1782'> +3.9862881E-01 </wgt>
<wgt id='1783'> +4.4304900E-01 </wgt>
<wgt id='1784'> +4.2597483E-01 </wgt>
<wgt id='1785'> +4.1673229E-01 </wgt>
<wgt id='1786'> +4.2748260E-01 </wgt>
<wgt id='1787'> +4.0124494E-01 </wgt>
<wgt id='1788'> +4.3143639E-01 </wgt>
<wgt id='1789'> +4.2560377E-01 </wgt>
<wgt id='1790'> +4.0425917E-01 </wgt>
<wgt id='1791'> +3.7045036E-01 </wgt>
<wgt id='1792'> +4.0407005E-01 </wgt>
<wgt id='1793'> +4.1200421E-01 </wgt>
<wgt id='1794'> +4.5395900E-01 </wgt>
<wgt id='1795'> +4.4596689E-01 </wgt>
<wgt id='1796'> +3.9872782E-01 </wgt>
<wgt id='1797'> +4.0277903E-01 </wgt>
<wgt id='1798'> +3.9902103E-01 </wgt>
<wgt id='1799'> +4.0830620E-01 </wgt>
<wgt id='1800'> +4.3922176E-01 </wgt>
<wgt id='1801'> +4.3802305E-01 </wgt>
<wgt id='1802'> +4.3297725E-01 </wgt>
<wgt id='1803'> +4.6537407E-01 </wgt>
<wgt id='1804'> +4.0921559E-01 </wgt>
<wgt id='1805'> +4.0919924E-01 </wgt>
<wgt id='1806'> +4.2623980E-01 </wgt>
<wgt id='1807'> +4.3458965E-01 </wgt>
<wgt id='1808'> +3.9115516E-01 </wgt>
<wgt id='1809'> +4.1287208E-01 </wgt>
<wgt id='1810'> +4.0221403E-01 </wgt>
<wgt id='1811'> +4.2176327E-01 </wgt>
<wgt id='1812'> +4.0942897E-01 </wgt>
<wgt id='1813'> +4.1400821E-01 </wgt>
<wgt id='1814'> +4.2099798E-01 </wgt>
<wgt id='1815'> +4.2049137E-01 </wgt>
<wgt id='1816'> +4.1619430E-01 </wgt>
<wgt id='1817'> +4.1936694E-01 </wgt>
<wgt id='1818'> +4.1315384E-01 </wgt>
<wgt id='1819'> +4.0203648E-01 </wgt>
<wgt id='1820'> +4.1265620E-01 </wgt>
<wgt id='1821'> +4.2411533E-01 </wgt>
<wgt id='1822'> +3.9951567E-01 </wgt>
<wgt id='1823'> +4.2245993E-01 </wgt>
<wgt id='1824'> +4.2097516E-01 </wgt>
<wgt id='1825'> +4.2177240E-01 </wgt>
<wgt id='1826'> +4.3477248E-01 </wgt>
<wgt id='1827'> +3.8849447E-01 </wgt>
<wgt id='1828'> +4.0201160E-01 </wgt>
<wgt id='1829'> +4.3386786E-01 </wgt>
<wgt id='1830'> +4.3132151E-01 </wgt>
<wgt id='1831'> +4.2319975E-01 </wgt>
<wgt id='1832'> +4.2044023E-01 </wgt>
<wgt id='1833'> +4.3037232E-01 </wgt>
<wgt id='1834'> +4.1107007E-01 </wgt>
<wgt id='1835'> +4.0743865E-01 </wgt>
<wgt id='1836'> +4.6829563E-01 </wgt>
<wgt id='1837'> +4.1348530E-01 </wgt>
<wgt id='1838'> +4.3080003E-01 </wgt>
<wgt id='1839'> +4.3930396E-01 </wgt>
<wgt id='1840'> +4.4662805E-01 </wgt>
<wgt id='1841'> +4.1069446E-01 </wgt>
<wgt id='1842'> +4.0947699E-01 </wgt>
<wgt id='1843'> +4.1749449E-01 </wgt>
<wgt id='1844'> +4.1918292E-01 </wgt>
<wgt id='1845'> +4.2249651E-01 </wgt>
<wgt id='1846'> +4.2470790E-01 </wgt>
<wgt id='1847'> +4.4669756E-01 </wgt>
<wgt id='1848'> +4.1018644E-01 </wgt>
<wgt id='1849'> +4.2527493E-01 </wgt>
<wgt id='1850'> +4.1339743E-01 </wgt>
<wgt id='1851'> +4.1587679E-01 </wgt>
<wgt id='1852'> +3.9921406E-01 </wgt>
<wgt id='1853'> +4.3909892E-01 </wgt>
<wgt id='1854'> +4.2215295E-01 </wgt>
<wgt id='1855'> +4.3796425E-01 </wgt>
<wgt id='1856'> +4.1362501E-01 </wgt>
<wgt id='1857'> +4.1243845E-01 </wgt>
<wgt id='1858'> +3.8734088E-01 </wgt>
<wgt id='1859'> +4.2723444E-01 </wgt>
<wgt id='1860'> +4.1109846E-01 </wgt>
<wgt id='1861'> +4.2298378E-01 </wgt>
<wgt id='1862'> +3.9585593E-01 </wgt>
<wgt id='1863'> +3.8036232E-01 </wgt>
<wgt id='1864'> +4.2055561E-01 </wgt>
<wgt id='1865'> +3.8416953E-01 </wgt>
<wgt id='1866'> +4.1960010E-01 </wgt>
<wgt id='1867'> +3.9485499E-01 </wgt>
<wgt id='1868'> +4.2517412E-01 </wgt>
<wgt id='1869'> +4.2641666E-01 </wgt>
<wgt id='1870'> +4.3330366E-01 </wgt>
<wgt id='1871'> +4.3269968E-01 </wgt>
<wgt id='1872'> +4.2321286E-01 </wgt>
<wgt id='1873'> +4.1657902E-01 </wgt>
<wgt id='1874'> +4.0010484E-01 </wgt>
<wgt id='1875'> +4.1913927E-01 </wgt>
<wgt id='1876'> +4.1703211E-01 </wgt>
<wgt id='1877'> +4.0347956E-01 </wgt>
<wgt id='1878'> +3.9313873E-01 </wgt>
<wgt id='1879'> +3.9874884E-01 </wgt>
<wgt id='1880'> +3.8957506E-01 </wgt>
<wgt id='1881'> +4.0371929E-01 </wgt>
<wgt id='1882'> +4.3124890E-01 </wgt>
<wgt id='1883'> +4.3374541E-01 </wgt>
<wgt id='1884'> +4.2922241E-01 </wgt>
<wgt id='1885'> +4.1948643E-01 </wgt>
<wgt id='1886'> +4.4364226E-01 </wgt>
<wgt id='1887'> +4.0534465E-01 </wgt>
<wgt id='1888'> +3.8894176E-01 </wgt>
<wgt id='1889'> +4.0978918E-01 </wgt>
<wgt id='1890'> +3.7958136E-01 </wgt>
<wgt id='1891'> +4.1163730E-01 </wgt>
<wgt id='1892'> +3.9881918E-01 </wgt>
<wgt id='1893'> +4.3874084E-01 </wgt>
<wgt id='1894'> +4.0356578E-01 </wgt>
<wgt id='1895'> +4.1197479E-01 </wgt>
<wgt id='1896'> +4.1565005E-01 </wgt>
<wgt id='1897'> +4.1430885E-01 </wgt>
<wgt id='1898'> +4.1401946E-01 </wgt>
<wgt id='1899'> +3.9950388E-01 </wgt>
<wgt id='1900'> +4.4079369E-01 </wgt>
<wgt id='1901'> +3.8007032E-01 </wgt>
<wgt id='1902'> +3.8770992E-01 </wgt>
<wgt id='1903'> +3.9071544E-01 </wgt>
<wgt id='1904'> +3.8473002E-01 </wgt>
<wgt id='1905'> +4.3765346E-01 </wgt>
<wgt id='1906'> +4.3031328E-01 </wgt>
<wgt id='1907'> +4.1221429E-01 </wgt>
<wgt id='1908'> +4.2137035E-01 </wgt>
<wgt id='1909'> +4.2397866E-01 </wgt>
<wgt id='1910'> +4.1173554E-01 </wgt>
<wgt id='1911'> +4.1777843E-01 </wgt>
<wgt id='1912'> +4.1463382E-01 </wgt>
<wgt id='1913'> +4.5307627E-01 </wgt>
<wgt id='1914'> +4.3557958E-01 </wgt>
<wgt id='1915'> +4.0903467E-01 </wgt>
<wgt id='1916'> +4.3183933E-01 </wgt>
<wgt id='1917'> +4.6685147E-01 </wgt>
<wgt id='1918'> +4.8662962E-01 </wgt>
<wgt id='1919'> +4.1619430E-01 </wgt>
<wgt id='1920'> +4.1936694E-01 </wgt>
<wgt id='1921'> +4.1315384E-01 </wgt>
<wgt id='1922'> +4.0203648E-01 </wgt>
<wgt id='1923'> +4.1265620E-01 </wgt>
<wgt id='1924'> +4.2411533E-01 </wgt>
<wgt id='1925'> +3.9951567E-01 </wgt>
<wgt id='1926'> +4.2245993E-01 </wgt>
<wgt id='1927'> +4.2097516E-01 </wgt>
<wgt id='1928'> +4.2177240E-01 </wgt>
<wgt id='1929'> +4.3477248E-01 </wgt>
<wgt id='1930'> +3.8849447E-01 </wgt>
<wgt id='1931'> +4.0201160E-01 </wgt>
<wgt id='1932'> +4.3386786E-01 </wgt>
<wgt id='1933'> +4.3132151E-01 </wgt>
<wgt id='1934'> +4.2319975E-01 </wgt>
<wgt id='1935'> +4.2044023E-01 </wgt>
<wgt id='1936'> +4.3037232E-01 </wgt>
<wgt id='1937'> +4.1107007E-01 </wgt>
<wgt id='1938'> +4.0743865E-01 </wgt>
<wgt id='1939'> +4.6829563E-01 </wgt>
<wgt id='1940'> +4.1348530E-01 </wgt>
<wgt id='1941'> +4.3080003E-01 </wgt>
<wgt id='1942'> +4.3930396E-01 </wgt>
<wgt id='1943'> +4.4662805E-01 </wgt>
<wgt id='1944'> +4.1069446E-01 </wgt>
<wgt id='1945'> +4.0947699E-01 </wgt>
<wgt id='1946'> +4.1749449E-01 </wgt>
<wgt id='1947'> +4.1918292E-01 </wgt>
<wgt id='1948'> +4.2249651E-01 </wgt>
<wgt id='1949'> +4.2470790E-01 </wgt>
<wgt id='1950'> +4.4669756E-01 </wgt>
<wgt id='1951'> +4.1018644E-01 </wgt>
<wgt id='1952'> +4.2527493E-01 </wgt>
<wgt id='1953'> +4.1339743E-01 </wgt>
<wgt id='1954'> +4.1587679E-01 </wgt>
<wgt id='1955'> +3.9921406E-01 </wgt>
<wgt id='1956'> +4.3909892E-01 </wgt>
<wgt id='1957'> +4.2215295E-01 </wgt>
<wgt id='1958'> +4.3796425E-01 </wgt>
<wgt id='1959'> +4.1362501E-01 </wgt>
<wgt id='1960'> +4.1243845E-01 </wgt>
<wgt id='1961'> +3.8734088E-01 </wgt>
<wgt id='1962'> +4.2723444E-01 </wgt>
<wgt id='1963'> +4.1109846E-01 </wgt>
<wgt id='1964'> +4.2298378E-01 </wgt>
<wgt id='1965'> +3.9585593E-01 </wgt>
<wgt id='1966'> +3.8036232E-01 </wgt>
<wgt id='1967'> +4.2055561E-01 </wgt>
<wgt id='1968'> +3.8416953E-01 </wgt>
<wgt id='1969'> +4.1960010E-01 </wgt>
<wgt id='1970'> +3.9485499E-01 </wgt>
<wgt id='1971'> +4.2517412E-01 </wgt>
<wgt id='1972'> +4.2641666E-01 </wgt>
<wgt id='1973'> +4.3330366E-01 </wgt>
<wgt id='1974'> +4.3269968E-01 </wgt>
<wgt id='1975'> +4.2321286E-01 </wgt>
<wgt id='1976'> +4.1657902E-01 </wgt>
<wgt id='1977'> +4.0010484E-01 </wgt>
<wgt id='1978'> +4.1913927E-01 </wgt>
<wgt id='1979'> +4.1703211E-01 </wgt>
<wgt id='1980'> +4.0347956E-01 </wgt>
<wgt id='1981'> +3.9313873E-01 </wgt>
<wgt id='1982'> +3.9874884E-01 </wgt>
<wgt id='1983'> +3.8957506E-01 </wgt>
<wgt id='1984'> +4.0371929E-01 </wgt>
<wgt id='1985'> +4.3124890E-01 </wgt>
<wgt id='1986'> +4.3374541E-01 </wgt>
<wgt id='1987'> +4.2922241E-01 </wgt>
<wgt id='1988'> +4.1948643E-01 </wgt>
<wgt id='1989'> +4.4364226E-01 </wgt>
<wgt id='1990'> +4.0534465E-01 </wgt>
<wgt id='1991'> +3.8894176E-01 </wgt>
<wgt id='1992'> +4.0978918E-01 </wgt>
<wgt id='1993'> +3.7958136E-01 </wgt>
<wgt id='1994'> +4.1163730E-01 </wgt>
<wgt id='1995'> +3.9881918E-01 </wgt>
<wgt id='1996'> +4.3874084E-01 </wgt>
<wgt id='1997'> +4.0356578E-01 </wgt>
<wgt id='1998'> +4.1197479E-01 </wgt>
<wgt id='1999'> +4.1565005E-01 </wgt>
<wgt id='2000'> +4.1430885E-01 </wgt>
<wgt id='2001'> +4.1401946E-01 </wgt>
<wgt id='2002'> +3.9950388E-01 </wgt>
<wgt id='2003'> +4.4079369E-01 </wgt>
<wgt id='2004'> +3.8007032E-01 </wgt>
<wgt id='2005'> +3.8770992E-01 </wgt>
<wgt id='2006'> +3.9071544E-01 </wgt>
<wgt id='2007'> +3.8473002E-01 </wgt>
<wgt id='2008'> +4.3765346E-01 </wgt>
<wgt id='2009'> +4.3031328E-01 </wgt>
<wgt id='2010'> +4.1221429E-01 </wgt>
<wgt id='2011'> +4.2137035E-01 </wgt>
<wgt id='2012'> +4.2397866E-01 </wgt>
<wgt id='2013'> +4.1173554E-01 </wgt>
<wgt id='2014'> +4.1777843E-01 </wgt>
<wgt id='2015'> +4.1463382E-01 </wgt>
<wgt id='2016'> +4.5307627E-01 </wgt>
<wgt id='2017'> +4.3557958E-01 </wgt>
<wgt id='2018'> +4.0903467E-01 </wgt>
<wgt id='2019'> +4.3183933E-01 </wgt>
<wgt id='2020'> +4.1117181E-01 </wgt>
<wgt id='2021'> +4.1561708E-01 </wgt>
<wgt id='2022'> +4.0118450E-01 </wgt>
</rwgt>
</event>
<event>
13      2 +3.9556008E-01 8.15650000e+01 7.81860800e-03 1.15069200e-01
        3 -1    0    0  501    0 +0.0000000000e+00 +0.0000000000e+00 +1.3161071805e+02 1.3161075680e+02 1.0100000000e-01 0.0000e+00 -1.0000e+00
       21 -1    0    0  502  503 +0.0000000000e+00 +0.0000000000e+00 -2.7350402086e+03 2.7350402086e+03 0.0000000000e+00 0.0000e+00 1.0000e+00
 -8000001  2    1    2    0  503 -2.5078422420e+01 -8.0103125027e+01 -2.2566949287e+03 2.3366038308e+03 6.0000001904e+02 0.0000e+00 0.0000e+00
        4  1    1    2  501    0 +1.5754160849e+01 +7.6619142326e+01 +7.4877936236e+01 1.0829129600e+02 1.2700000000e+00 0.0000e+00 -1.0000e+00
        5  1    1    2  502    0 +9.3242615703e+00 +3.4839827011e+00 -4.2161249808e+02 4.2175583864e+02 4.6700000000e+00 0.0000e+00 -1.0000e+00
       -6  2    3    3    0  503 -8.5792517739e+01 -5.9043507739e+01 -2.1984135470e+03 2.2075976237e+03 1.7210070487e+02 0.0000e+00 0.0000e+00
       -5  1    6    6    0  503 +3.5841982078e+01 -9.5964861947e+00 -7.7597301356e+02 7.7687364925e+02 4.6700000000e+00 0.0000e+00 1.0000e+00
      -24  2    6    6    0    0 -1.2163449982e+02 -4.9447021544e+01 -1.4224405335e+03 1.4307239745e+03 7.9962868879e+01 0.0000e+00 0.0000e+00
      -14  1    8    8    0    0 -6.7549660228e+01 -6.6995375842e+01 -7.8252705385e+02 7.8828924069e+02 0.0000000000e+00 0.0000e+00 1.0000e+00
       13  1    8    8    0    0 -5.4084839589e+01 +1.7548354298e+01 -6.3991347964e+02 6.4243473381e+02 1.0566000000e-01 0.0000e+00 -1.0000e+00
       23  2    3    3    0    0 +6.0714095319e+01 -2.1059617288e+01 -5.8281381661e+01 1.2900620702e+02 9.5478652846e+01 0.0000e+00 0.0000e+00
        3  1   11   11  504    0 +2.5504306415e+01 +3.4568964825e+01 -3.0428293763e+00 4.3066831627e+01 1.0100000000e-01 0.0000e+00 1.0000e+00
       -3  1   11   11    0  504 +3.5209788904e+01 -5.5628582113e+01 -5.5238552285e+01 8.5939375388e+01 1.0100000000e-01 0.0000e+00 -1.0000e+00
<mgrwt>
<rscale>  1 0.79900808e+02</rscale>
<asrwt>0</asrwt>
<pdfrwt beam="1">  1       21 0.42077542e+00 0.81565002e+02</pdfrwt>
<pdfrwt beam="2">  1        3 0.20247806e-01 0.78270569e+02</pdfrwt>
<totfact> 0.92737495e+00</totfact>
</mgrwt>
<rwgt>
<wgt id='1001'> +3.9556008E-01 </wgt>
<wgt id='1002'> +2.3161442E-01 </wgt>
<wgt id='1003'> +2.3136500E-01 </wgt>
<wgt id='1004'> +2.8978534E-01 </wgt>
<wgt id='1005'> +1.6630483E-01 </wgt>
<wgt id='1006'> +3.5575804E-01 </wgt>
<wgt id='1007'> +2.1282957E-01 </wgt>
<wgt id='1008'> +2.1260826E-01 </wgt>
<wgt id='1009'> +2.6410999E-01 </wgt>
<wgt id='1010'> +1.5445721E-01 </wgt>
<wgt id='1011'> +4.4578427E-01 </wgt>
<wgt id='1012'> +2.5414229E-01 </wgt>
<wgt id='1013'> +2.5385706E-01 </wgt>
<wgt id='1014'> +3.2117448E-01 </wgt>
<wgt id='1015'> +1.8016978E-01 </wgt>
<wgt id='1016'> +3.4218321E-01 </wgt>
<wgt id='1017'> +2.0476427E-01 </wgt>
<wgt id='1018'> +2.0455307E-01 </wgt>
<wgt id='1019'> +2.5385706E-01 </wgt>
<wgt id='1020'> +1.4894684E-01 </wgt>
<wgt id='1021'> +3.0775205E-01 </wgt>
<wgt id='1022'> +1.8815706E-01 </wgt>
<wgt id='1023'> +1.8796996E-01 </wgt>
<wgt id='1024'> +2.3136500E-01 </wgt>
<wgt id='1025'> +1.3833582E-01 </wgt>
<wgt id='1026'> +3.8563014E-01 </wgt>
<wgt id='1027'> +2.2468057E-01 </wgt>
<wgt id='1028'> +2.2443862E-01 </wgt>
<wgt id='1029'> +2.8135451E-01 </wgt>
<wgt id='1030'> +1.6136465E-01 </wgt>
<wgt id='1031'> +4.6236453E-01 </wgt>
<wgt id='1032'> +2.6440813E-01 </wgt>
<wgt id='1033'> +2.6410999E-01 </wgt>
<wgt id='1034'> +3.3424838E-01 </wgt>
<wgt id='1035'> +1.8697232E-01 </wgt>
<wgt id='1036'> +4.1584049E-01 </wgt>
<wgt id='1037'> +2.4296356E-01 </wgt>
<wgt id='1038'> +2.4269860E-01 </wgt>
<wgt id='1039'> +3.0463356E-01 </wgt>
<wgt id='1040'> +1.7365234E-01 </wgt>
<wgt id='1041'> +5.2107086E-01 </wgt>
<wgt id='1042'> +2.9012565E-01 </wgt>
<wgt id='1043'> +2.8978534E-01 </wgt>
<wgt id='1044'> +3.7045371E-01 </wgt>
<wgt id='1045'> +2.0256034E-01 </wgt>
<wgt id='1046'> +3.9556008E-01 </wgt>
<wgt id='1047'> +3.9556008E-01 </wgt>
<wgt id='1048'> +3.9556008E-01 </wgt>
<wgt id='1049'> +3.9431656E-01 </wgt>
<wgt id='1050'> +3.9178229E-01 </wgt>
<wgt id='1051'> +3.9867760E-01 </wgt>
<wgt id='1052'> +3.9361896E-01 </wgt>
<wgt id='1053'> +3.9276635E-01 </wgt>
<wgt id='1054'> +4.0714186E-01 </wgt>
<wgt id='1055'> +3.9201769E-01 </wgt>
<wgt id='1056'> +3.8942613E-01 </wgt>
<wgt id='1057'> +3.9256525E-01 </wgt>
<wgt id='1058'> +4.0039688E-01 </wgt>
<wgt id='1059'> +3.9888398E-01 </wgt>
<wgt id='1060'> +3.9346012E-01 </wgt>
<wgt id='1061'> +3.9629501E-01 </wgt>
<wgt id='1062'> +3.9843845E-01 </wgt>
<wgt id='1063'> +3.8877185E-01 </wgt>
<wgt id='1064'> +4.0735077E-01 </wgt>
<wgt id='1065'> +4.0018192E-01 </wgt>
<wgt id='1066'> +4.0177406E-01 </wgt>
<wgt id='1067'> +3.9250728E-01 </wgt>
<wgt id='1068'> +4.0149049E-01 </wgt>
<wgt id='1069'> +3.9549945E-01 </wgt>
<wgt id='1070'> +3.8488007E-01 </wgt>
<wgt id='1071'> +4.0501499E-01 </wgt>
<wgt id='1072'> +3.8199332E-01 </wgt>
<wgt id='1073'> +4.0535508E-01 </wgt>
<wgt id='1074'> +4.0148514E-01 </wgt>
<wgt id='1075'> +3.8748900E-01 </wgt>
<wgt id='1076'> +3.9742680E-01 </wgt>
<wgt id='1077'> +3.9272316E-01 </wgt>
<wgt id='1078'> +3.7722052E-01 </wgt>
<wgt id='1079'> +4.0121752E-01 </wgt>
<wgt id='1080'> +4.0573839E-01 </wgt>
<wgt id='1081'> +3.9751338E-01 </wgt>
<wgt id='1082'> +3.9197048E-01 </wgt>
<wgt id='1083'> +3.9623553E-01 </wgt>
<wgt id='1084'> +4.0113147E-01 </wgt>
<wgt id='1085'> +3.9125158E-01 </wgt>
<wgt id='1086'> +4.0171935E-01 </wgt>
<wgt id='1087'> +3.9598314E-01 </wgt>
<wgt id='1088'> +3.9847445E-01 </wgt>
<wgt id='1089'> +3.9540220E-01 </wgt>
<wgt id='1090'> +4.0018450E-01 </wgt>
<wgt id='1091'> +3.9561108E-01 </wgt>
<wgt id='1092'> +3.9708843E-01 </wgt>
<wgt id='1093'> +3.9552781E-01 </wgt>
<wgt id='1094'> +3.8597580E-01 </wgt>
<wgt id='1095'> +3.9420368E-01 </wgt>
<wgt id='1096'> +3.9421262E-01 </wgt>
<wgt id='1097'> +3.9848184E-01 </wgt>
<wgt id='1098'> +3.9492178E-01 </wgt>
<wgt id='1099'> +3.9737440E-01 </wgt>
<wgt id='1100'> +3.9684658E-01 </wgt>
<wgt id='1101'> +3.9701350E-01 </wgt>
<wgt id='1102'> +3.9299666E-01 </wgt>
<wgt id='1103'> +3.8963557E-01 </wgt>
<wgt id='1104'> +3.9740334E-01 </wgt>
<wgt id='1105'> +3.9279952E-01 </wgt>
<wgt id='1106'> +3.9410524E-01 </wgt>
<wgt id='1107'> +3.9694329E-01 </wgt>
<wgt id='1108'> +3.9441529E-01 </wgt>
<wgt id='1109'> +3.9767727E-01 </wgt>
<wgt id='1110'> +3.9407973E-01 </wgt>
<wgt id='1111'> +3.9930066E-01 </wgt>
<wgt id='1112'> +3.9425647E-01 </wgt>
<wgt id='1113'> +3.9660329E-01 </wgt>
<wgt id='1114'> +3.9558694E-01 </wgt>
<wgt id='1115'> +3.9196166E-01 </wgt>
<wgt id='1116'> +3.9994233E-01 </wgt>
<wgt id='1117'> +3.9464555E-01 </wgt>
<wgt id='1118'> +3.9957751E-01 </wgt>
<wgt id='1119'> +3.9292270E-01 </wgt>
<wgt id='1120'> +3.9164151E-01 </wgt>
<wgt id='1121'> +3.9488587E-01 </wgt>
<wgt id='1122'> +3.9380963E-01 </wgt>
<wgt id='1123'> +3.9514853E-01 </wgt>
<wgt id='1124'> +3.9729987E-01 </wgt>
<wgt id='1125'> +3.9628350E-01 </wgt>
<wgt id='1126'> +3.9584239E-01 </wgt>
<wgt id='1127'> +3.9623315E-01 </wgt>
<wgt id='1128'> +3.9548023E-01 </wgt>
<wgt id='1129'> +3.9391203E-01 </wgt>
<wgt id='1130'> +3.9622964E-01 </wgt>
<wgt id='1131'> +3.9975976E-01 </wgt>
<wgt id='1132'> +3.9454996E-01 </wgt>
<wgt id='1133'> +3.9647184E-01 </wgt>
<wgt id='1134'> +3.9518313E-01 </wgt>
<wgt id='1135'> +3.9595083E-01 </wgt>
<wgt id='1136'> +3.9452050E-01 </wgt>
<wgt id='1137'> +3.9415394E-01 </wgt>
<wgt id='1138'> +3.9509680E-01 </wgt>
<wgt id='1139'> +3.9639516E-01 </wgt>
<wgt id='1140'> +3.9665115E-01 </wgt>
<wgt id='1141'> +3.9425052E-01 </wgt>
<wgt id='1142'> +3.9559691E-01 </wgt>
<wgt id='1143'> +3.9690868E-01 </wgt>
<wgt id='1144'> +3.9566111E-01 </wgt>
<wgt id='1145'> +3.9634050E-01 </wgt>
<wgt id='1146'> +3.9663461E-01 </wgt>
<wgt id='1147'> +3.9617508E-01 </wgt>
<wgt id='1148'> +3.9556008E-01 </wgt>
<wgt id='1149'> +3.7120595E-01 </wgt>
<wgt id='1150'> +2.8552859E-01 </wgt>
<wgt id='1151'> +3.7299753E-01 </wgt>
<wgt id='1152'> +3.8880666E-01 </wgt>
<wgt id='1153'> +3.9208800E-01 </wgt>
<wgt id='1154'> +3.2715468E-01 </wgt>
<wgt id='1155'> +3.6365151E-01 </wgt>
<wgt id='1156'> +3.7166611E-01 </wgt>
<wgt id='1157'> +3.8392168E-01 </wgt>
<wgt id='1158'> +4.5313161E-01 </wgt>
<wgt id='1159'> +3.9565232E-01 </wgt>
<wgt id='1160'> +2.9815426E-01 </wgt>
<wgt id='1161'> +4.0955031E-01 </wgt>
<wgt id='1162'> +3.5345843E-01 </wgt>
<wgt id='1163'> +3.7889353E-01 </wgt>
<wgt id='1164'> +2.7880791E-01 </wgt>
<wgt id='1165'> +3.7796379E-01 </wgt>
<wgt id='1166'> +3.3515961E-01 </wgt>
<wgt id='1167'> +3.6474003E-01 </wgt>
<wgt id='1168'> +3.3677253E-01 </wgt>
<wgt id='1169'> +3.3817618E-01 </wgt>
<wgt id='1170'> +3.9191651E-01 </wgt>
<wgt id='1171'> +3.3969364E-01 </wgt>
<wgt id='1172'> +3.0911688E-01 </wgt>
<wgt id='1173'> +3.8452088E-01 </wgt>
<wgt id='1174'> +4.2347996E-01 </wgt>
<wgt id='1175'> +3.7453895E-01 </wgt>
<wgt id='1176'> +3.8680719E-01 </wgt>
<wgt id='1177'> +4.3971237E-01 </wgt>
<wgt id='1178'> +3.5655364E-01 </wgt>
<wgt id='1179'> +3.8276986E-01 </wgt>
<wgt id='1180'> +3.9431888E-01 </wgt>
<wgt id='1181'> +2.8086594E-01 </wgt>
<wgt id='1182'> +3.1332408E-01 </wgt>
<wgt id='1183'> +4.1187924E-01 </wgt>
<wgt id='1184'> +3.4859100E-01 </wgt>
<wgt id='1185'> +3.7776533E-01 </wgt>
<wgt id='1186'> +3.2477692E-01 </wgt>
<wgt id='1187'> +4.5811254E-01 </wgt>
<wgt id='1188'> +4.1947584E-01 </wgt>
<wgt id='1189'> +4.3832077E-01 </wgt>
<wgt id='1190'> +4.3468660E-01 </wgt>
<wgt id='1191'> +4.5523646E-01 </wgt>
<wgt id='1192'> +3.8179684E-01 </wgt>
<wgt id='1193'> +3.8812639E-01 </wgt>
<wgt id='1194'> +3.2258475E-01 </wgt>
<wgt id='1195'> +3.7014149E-01 </wgt>
<wgt id='1196'> +3.3356197E-01 </wgt>
<wgt id='1197'> +4.0150430E-01 </wgt>
<wgt id='1198'> +3.4232251E-01 </wgt>
<wgt id='1199'> +4.3077240E-01 </wgt>
<wgt id='1200'> +3.1902085E-01 </wgt>
<wgt id='1201'> +4.4551213E-01 </wgt>
<wgt id='1202'> +3.7471405E-01 </wgt>
<wgt id='1203'> +3.5086236E-01 </wgt>
<wgt id='1204'> +3.1495004E-01 </wgt>
<wgt id='1205'> +4.0090551E-01 </wgt>
<wgt id='1206'> +3.2626134E-01 </wgt>
<wgt id='1207'> +4.3420737E-01 </wgt>
<wgt id='1208'> +4.0426348E-01 </wgt>
<wgt id='1209'> +3.0331234E-01 </wgt>
<wgt id='1210'> +3.7633013E-01 </wgt>
<wgt id='1211'> +3.9782560E-01 </wgt>
<wgt id='1212'> +3.2808917E-01 </wgt>
<wgt id='1213'> +3.7727391E-01 </wgt>
<wgt id='1214'> +3.6012940E-01 </wgt>
<wgt id='1215'> +3.7054510E-01 </wgt>
<wgt id='1216'> +3.5411779E-01 </wgt>
<wgt id='1217'> +3.5516539E-01 </wgt>
<wgt id='1218'> +3.3172431E-01 </wgt>
<wgt id='1219'> +3.5625040E-01 </wgt>
<wgt id='1220'> +3.3243376E-01 </wgt>
<wgt id='1221'> +3.2321088E-01 </wgt>
<wgt id='1222'> +3.5537201E-01 </wgt>
<wgt id='1223'> +3.8390780E-01 </wgt>
<wgt id='1224'> +3.9209548E-01 </wgt>
<wgt id='1225'> +3.2718316E-01 </wgt>
<wgt id='1226'> +3.6432517E-01 </wgt>
<wgt id='1227'> +3.4364165E-01 </wgt>
<wgt id='1228'> +3.0867587E-01 </wgt>
<wgt id='1229'> +3.7683570E-01 </wgt>
<wgt id='1230'> +3.8084042E-01 </wgt>
<wgt id='1231'> +3.7796379E-01 </wgt>
<wgt id='1232'> +3.7359973E-01 </wgt>
<wgt id='1233'> +3.9340098E-01 </wgt>
<wgt id='1234'> +4.0962203E-01 </wgt>
<wgt id='1235'> +3.9185039E-01 </wgt>
<wgt id='1236'> +4.2985616E-01 </wgt>
<wgt id='1237'> +3.6019290E-01 </wgt>
<wgt id='1238'> +4.3690587E-01 </wgt>
<wgt id='1239'> +4.2024624E-01 </wgt>
<wgt id='1240'> +4.2665748E-01 </wgt>
<wgt id='1241'> +3.3060129E-01 </wgt>
<wgt id='1242'> +3.9814913E-01 </wgt>
<wgt id='1243'> +3.1525866E-01 </wgt>
<wgt id='1244'> +3.6077069E-01 </wgt>
<wgt id='1245'> +4.2761256E-01 </wgt>
<wgt id='1246'> +3.9422979E-01 </wgt>
<wgt id='1247'> +3.3162922E-01 </wgt>
<wgt id='1248'> +3.7095302E-01 </wgt>
<wgt id='1249'> +3.6428384E-01 </wgt>
<wgt id='1250'> +5.6059496E-01 </wgt>
<wgt id='1251'> +5.4954732E-01 </wgt>
<wgt id='1252'> +4.2034252E-01 </wgt>
<wgt id='1253'> +3.9291658E-01 </wgt>
<wgt id='1254'> +4.5563549E-01 </wgt>
<wgt id='1255'> +4.3549717E-01 </wgt>
<wgt id='1256'> +4.3548149E-01 </wgt>
<wgt id='1257'> +4.3552300E-01 </wgt>
<wgt id='1258'> +4.3608645E-01 </wgt>
<wgt id='1259'> +4.3519507E-01 </wgt>
<wgt id='1260'> +4.2921866E-01 </wgt>
<wgt id='1261'> +4.4399557E-01 </wgt>
<wgt id='1262'> +4.3344955E-01 </wgt>
<wgt id='1263'> +4.3683258E-01 </wgt>
<wgt id='1264'> +4.3128946E-01 </wgt>
<wgt id='1265'> +4.3839114E-01 </wgt>
<wgt id='1266'> +4.3168778E-01 </wgt>
<wgt id='1267'> +4.3925554E-01 </wgt>
<wgt id='1268'> +4.3564159E-01 </wgt>
<wgt id='1269'> +4.3525834E-01 </wgt>
<wgt id='1270'> +4.2495021E-01 </wgt>
<wgt id='1271'> +4.4763636E-01 </wgt>
<wgt id='1272'> +4.3033469E-01 </wgt>
<wgt id='1273'> +4.3954924E-01 </wgt>
<wgt id='1274'> +4.4277177E-01 </wgt>
<wgt id='1275'> +4.2676568E-01 </wgt>
<wgt id='1276'> +4.6049691E-01 </wgt>
<wgt id='1277'> +4.1152181E-01 </wgt>
<wgt id='1278'> +4.3330422E-01 </wgt>
<wgt id='1279'> +4.3695758E-01 </wgt>
<wgt id='1280'> +4.3612457E-01 </wgt>
<wgt id='1281'> +4.3447068E-01 </wgt>
<wgt id='1282'> +4.0671174E-01 </wgt>
<wgt id='1283'> +4.6295724E-01 </wgt>
<wgt id='1284'> +4.4570061E-01 </wgt>
<wgt id='1285'> +4.2663334E-01 </wgt>
<wgt id='1286'> +4.3805744E-01 </wgt>
<wgt id='1287'> +4.3527088E-01 </wgt>
<wgt id='1288'> +4.4700609E-01 </wgt>
<wgt id='1289'> +4.2880563E-01 </wgt>
<wgt id='1290'> +4.4503404E-01 </wgt>
<wgt id='1291'> +4.3224468E-01 </wgt>
<wgt id='1292'> +4.3040416E-01 </wgt>
<wgt id='1293'> +4.3781088E-01 </wgt>
<wgt id='1294'> +4.6217295E-01 </wgt>
<wgt id='1295'> +4.1253795E-01 </wgt>
<wgt id='1296'> +4.3567741E-01 </wgt>
<wgt id='1297'> +4.3783237E-01 </wgt>
<wgt id='1298'> +4.3394337E-01 </wgt>
<wgt id='1299'> +4.3275941E-01 </wgt>
<wgt id='1300'> +4.3896226E-01 </wgt>
<wgt id='1301'> +4.3882336E-01 </wgt>
<wgt id='1302'> +4.3103062E-01 </wgt>
<wgt id='1303'> +4.3398374E-01 </wgt>
<wgt id='1304'> +4.3681329E-01 </wgt>
<wgt id='1305'> +4.3456174E-01 </wgt>
<wgt id='1306'> +4.3727502E-01 </wgt>
<wgt id='1307'> +4.3912529E-01 </wgt>
<wgt id='1308'> +4.3353759E-01 </wgt>
<wgt id='1309'> +4.3673131E-01 </wgt>
<wgt id='1310'> +4.3425210E-01 </wgt>
<wgt id='1311'> +4.3328299E-01 </wgt>
<wgt id='1312'> +4.3655367E-01 </wgt>
<wgt id='1313'> +4.2453432E-01 </wgt>
<wgt id='1314'> +4.4987448E-01 </wgt>
<wgt id='1315'> +4.3631547E-01 </wgt>
<wgt id='1316'> +4.3519380E-01 </wgt>
<wgt id='1317'> +4.6242276E-01 </wgt>
<wgt id='1318'> +3.9434007E-01 </wgt>
<wgt id='1319'> +4.1889635E-01 </wgt>
<wgt id='1320'> +4.4683319E-01 </wgt>
<wgt id='1321'> +4.2586877E-01 </wgt>
<wgt id='1322'> +4.4049477E-01 </wgt>
<wgt id='1323'> +4.3045298E-01 </wgt>
<wgt id='1324'> +4.4258110E-01 </wgt>
<wgt id='1325'> +4.2875578E-01 </wgt>
<wgt id='1326'> +4.4737238E-01 </wgt>
<wgt id='1327'> +4.2870307E-01 </wgt>
<wgt id='1328'> +4.3847591E-01 </wgt>
<wgt id='1329'> +4.4271253E-01 </wgt>
<wgt id='1330'> +4.3098053E-01 </wgt>
<wgt id='1331'> +4.4471826E-01 </wgt>
<wgt id='1332'> +4.3070242E-01 </wgt>
<wgt id='1333'> +4.0633682E-01 </wgt>
<wgt id='1334'> +4.7501167E-01 </wgt>
<wgt id='1335'> +4.4636764E-01 </wgt>
<wgt id='1336'> +4.3271420E-01 </wgt>
<wgt id='1337'> +4.3567741E-01 </wgt>
<wgt id='1338'> +4.3723938E-01 </wgt>
<wgt id='1339'> +4.3707137E-01 </wgt>
<wgt id='1340'> +4.3669631E-01 </wgt>
<wgt id='1341'> +4.3669110E-01 </wgt>
<wgt id='1342'> +4.3641510E-01 </wgt>
<wgt id='1343'> +4.3623440E-01 </wgt>
<wgt id='1344'> +4.0097817E-01 </wgt>
<wgt id='1345'> +4.0323201E-01 </wgt>
<wgt id='1346'> +3.9875458E-01 </wgt>
<wgt id='1347'> +4.0077442E-01 </wgt>
<wgt id='1348'> +4.0115003E-01 </wgt>
<wgt id='1349'> +4.0176411E-01 </wgt>
<wgt id='1350'> +4.0033910E-01 </wgt>
<wgt id='1351'> +4.0011867E-01 </wgt>
<wgt id='1352'> +4.0223157E-01 </wgt>
<wgt id='1353'> +3.9564794E-01 </wgt>
<wgt id='1354'> +4.0474745E-01 </wgt>
<wgt id='1355'> +3.9900455E-01 </wgt>
<wgt id='1356'> +4.0253446E-01 </wgt>
<wgt id='1357'> +4.0317458E-01 </wgt>
<wgt id='1358'> +3.9966055E-01 </wgt>
<wgt id='1359'> +4.0174778E-01 </wgt>
<wgt id='1360'> +3.9906227E-01 </wgt>
<wgt id='1361'> +3.7778300E-01 </wgt>
<wgt id='1362'> +4.2193287E-01 </wgt>
<wgt id='1363'> +3.9668898E-01 </wgt>
<wgt id='1364'> +4.0657660E-01 </wgt>
<wgt id='1365'> +3.9685420E-01 </wgt>
<wgt id='1366'> +4.0276562E-01 </wgt>
<wgt id='1367'> +3.9589236E-01 </wgt>
<wgt id='1368'> +4.0347412E-01 </wgt>
<wgt id='1369'> +4.1743751E-01 </wgt>
<wgt id='1370'> +3.8743496E-01 </wgt>
<wgt id='1371'> +3.9686862E-01 </wgt>
<wgt id='1372'> +4.0835545E-01 </wgt>
<wgt id='1373'> +3.6911240E-01 </wgt>
<wgt id='1374'> +4.2415461E-01 </wgt>
<wgt id='1375'> +3.8427666E-01 </wgt>
<wgt id='1376'> +4.0638998E-01 </wgt>
<wgt id='1377'> +3.9101890E-01 </wgt>
<wgt id='1378'> +4.1791374E-01 </wgt>
<wgt id='1379'> +3.9380573E-01 </wgt>
<wgt id='1380'> +4.0853594E-01 </wgt>
<wgt id='1381'> +4.1587321E-01 </wgt>
<wgt id='1382'> +3.9358194E-01 </wgt>
<wgt id='1383'> +4.0014766E-01 </wgt>
<wgt id='1384'> +4.0649743E-01 </wgt>
<wgt id='1385'> +4.0097817E-01 </wgt>
<wgt id='1386'> +4.0264262E-01 </wgt>
<wgt id='1387'> +4.0242137E-01 </wgt>
<wgt id='1388'> +4.0164941E-01 </wgt>
<wgt id='1389'> +4.0127490E-01 </wgt>
<wgt id='1390'> +4.0078361E-01 </wgt>
<wgt id='1391'> +4.0051325E-01 </wgt>
<wgt id='1392'> +4.4000287E-01 </wgt>
<wgt id='1393'> +4.3982108E-01 </wgt>
<wgt id='1394'> +4.4018192E-01 </wgt>
<wgt id='1395'> +4.3921326E-01 </wgt>
<wgt id='1396'> +4.4055396E-01 </wgt>
<wgt id='1397'> +4.4213132E-01 </wgt>
<wgt id='1398'> +4.3794181E-01 </wgt>
<wgt id='1399'> +4.3933490E-01 </wgt>
<wgt id='1400'> +4.4085052E-01 </wgt>
<wgt id='1401'> +4.4007147E-01 </wgt>
<wgt id='1402'> +4.3990174E-01 </wgt>
<wgt id='1403'> +4.3972598E-01 </wgt>
<wgt id='1404'> +4.4055018E-01 </wgt>
<wgt id='1405'> +4.4002795E-01 </wgt>
<wgt id='1406'> +4.3994801E-01 </wgt>
<wgt id='1407'> +4.3993375E-01 </wgt>
<wgt id='1408'> +4.4004541E-01 </wgt>
<wgt id='1409'> +4.3948733E-01 </wgt>
<wgt id='1410'> +4.4058135E-01 </wgt>
<wgt id='1411'> +4.4882450E-01 </wgt>
<wgt id='1412'> +4.3324850E-01 </wgt>
<wgt id='1413'> +4.3665439E-01 </wgt>
<wgt id='1414'> +4.4350474E-01 </wgt>
<wgt id='1415'> +4.3598267E-01 </wgt>
<wgt id='1416'> +4.4391806E-01 </wgt>
<wgt id='1417'> +4.3428727E-01 </wgt>
<wgt id='1418'> +4.4716732E-01 </wgt>
<wgt id='1419'> +4.3976462E-01 </wgt>
<wgt id='1420'> +4.4072169E-01 </wgt>
<wgt id='1421'> +4.2245664E-01 </wgt>
<wgt id='1422'> +4.6207414E-01 </wgt>
<wgt id='1423'> +4.0846813E-01 </wgt>
<wgt id='1424'> +4.6674578E-01 </wgt>
<wgt id='1425'> +4.4265642E-01 </wgt>
<wgt id='1426'> +4.3653404E-01 </wgt>
<wgt id='1427'> +4.4525279E-01 </wgt>
<wgt id='1428'> +4.2947988E-01 </wgt>
<wgt id='1429'> +4.4064786E-01 </wgt>
<wgt id='1430'> +4.3817052E-01 </wgt>
<wgt id='1431'> +4.3631153E-01 </wgt>
<wgt id='1432'> +4.4373591E-01 </wgt>
<wgt id='1433'> +4.5228699E-01 </wgt>
<wgt id='1434'> +4.2327521E-01 </wgt>
<wgt id='1435'> +4.2329316E-01 </wgt>
<wgt id='1436'> +4.4900290E-01 </wgt>
<wgt id='1437'> +4.4426028E-01 </wgt>
<wgt id='1438'> +4.2794969E-01 </wgt>
<wgt id='1439'> +4.1943769E-01 </wgt>
<wgt id='1440'> +4.7868173E-01 </wgt>
<wgt id='1441'> +4.2978916E-01 </wgt>
<wgt id='1442'> +4.4547567E-01 </wgt>
<wgt id='1443'> +3.9933395E-01 </wgt>
<wgt id='1444'> +3.9908698E-01 </wgt>
<wgt id='1445'> +3.9959968E-01 </wgt>
<wgt id='1446'> +3.9844891E-01 </wgt>
<wgt id='1447'> +3.9992875E-01 </wgt>
<wgt id='1448'> +4.0119058E-01 </wgt>
<wgt id='1449'> +3.9761410E-01 </wgt>
<wgt id='1450'> +3.9889111E-01 </wgt>
<wgt id='1451'> +3.9982717E-01 </wgt>
<wgt id='1452'> +3.9940107E-01 </wgt>
<wgt id='1453'> +3.9924945E-01 </wgt>
<wgt id='1454'> +3.9909293E-01 </wgt>
<wgt id='1455'> +3.9986138E-01 </wgt>
<wgt id='1456'> +3.9942518E-01 </wgt>
<wgt id='1457'> +3.9917021E-01 </wgt>
<wgt id='1458'> +3.9950305E-01 </wgt>
<wgt id='1459'> +3.9924513E-01 </wgt>
<wgt id='1460'> +4.0128443E-01 </wgt>
<wgt id='1461'> +3.9707480E-01 </wgt>
<wgt id='1462'> +4.0706378E-01 </wgt>
<wgt id='1463'> +3.9265450E-01 </wgt>
<wgt id='1464'> +3.9683802E-01 </wgt>
<wgt id='1465'> +4.0258569E-01 </wgt>
<wgt id='1466'> +3.9565063E-01 </wgt>
<wgt id='1467'> +4.0168720E-01 </wgt>
<wgt id='1468'> +4.0871503E-01 </wgt>
<wgt id='1469'> +3.9036095E-01 </wgt>
<wgt id='1470'> +3.9912995E-01 </wgt>
<wgt id='1471'> +3.9981875E-01 </wgt>
<wgt id='1472'> +3.8738204E-01 </wgt>
<wgt id='1473'> +4.1448550E-01 </wgt>
<wgt id='1474'> +3.7910940E-01 </wgt>
<wgt id='1475'> +4.2457680E-01 </wgt>
<wgt id='1476'> +4.0681926E-01 </wgt>
<wgt id='1477'> +3.9237079E-01 </wgt>
<wgt id='1478'> +4.0357475E-01 </wgt>
<wgt id='1479'> +3.8986615E-01 </wgt>
<wgt id='1480'> +4.0029003E-01 </wgt>
<wgt id='1481'> +3.9708751E-01 </wgt>
<wgt id='1482'> +3.9702737E-01 </wgt>
<wgt id='1483'> +4.0211074E-01 </wgt>
<wgt id='1484'> +4.1087914E-01 </wgt>
<wgt id='1485'> +3.8462949E-01 </wgt>
<wgt id='1486'> +3.8129294E-01 </wgt>
<wgt id='1487'> +4.0881036E-01 </wgt>
<wgt id='1488'> +4.0328822E-01 </wgt>
<wgt id='1489'> +3.8855534E-01 </wgt>
<wgt id='1490'> +3.8028123E-01 </wgt>
<wgt id='1491'> +4.3286478E-01 </wgt>
<wgt id='1492'> +3.8676735E-01 </wgt>
<wgt id='1493'> +4.0628971E-01 </wgt>
<wgt id='1494'> +4.2113815E-01 </wgt>
<wgt id='1495'> +3.6926657E-01 </wgt>
<wgt id='1496'> +3.8255300E-01 </wgt>
<wgt id='1497'> +4.0350528E-01 </wgt>
<wgt id='1498'> +4.4625758E-01 </wgt>
<wgt id='1499'> +4.2273251E-01 </wgt>
<wgt id='1500'> +4.3217473E-01 </wgt>
<wgt id='1501'> +4.3060501E-01 </wgt>
<wgt id='1502'> +4.2789911E-01 </wgt>
<wgt id='1503'> +4.2627614E-01 </wgt>
<wgt id='1504'> +4.2450967E-01 </wgt>
<wgt id='1505'> +4.2149309E-01 </wgt>
<wgt id='1506'> +4.1926314E-01 </wgt>
<wgt id='1507'> +4.1711306E-01 </wgt>
<wgt id='1508'> +4.2273251E-01 </wgt>
<wgt id='1509'> +4.1971730E-01 </wgt>
<wgt id='1510'> +4.2111967E-01 </wgt>
<wgt id='1511'> +4.2419961E-01 </wgt>
<wgt id='1512'> +4.2690869E-01 </wgt>
<wgt id='1513'> +5.0508715E-01 </wgt>
<wgt id='1514'> +5.0421893E-01 </wgt>
<wgt id='1515'> +5.0620033E-01 </wgt>
<wgt id='1516'> +5.0714746E-01 </wgt>
<wgt id='1517'> +5.0304482E-01 </wgt>
<wgt id='1518'> +5.0386654E-01 </wgt>
<wgt id='1519'> +5.0557624E-01 </wgt>
<wgt id='1520'> +5.0517489E-01 </wgt>
<wgt id='1521'> +5.0499616E-01 </wgt>
<wgt id='1522'> +5.0571995E-01 </wgt>
<wgt id='1523'> +5.0449727E-01 </wgt>
<wgt id='1524'> +5.0422682E-01 </wgt>
<wgt id='1525'> +5.0546065E-01 </wgt>
<wgt id='1526'> +5.0490711E-01 </wgt>
<wgt id='1527'> +5.0530680E-01 </wgt>
<wgt id='1528'> +5.0521492E-01 </wgt>
<wgt id='1529'> +5.0498045E-01 </wgt>
<wgt id='1530'> +5.1168459E-01 </wgt>
<wgt id='1531'> +5.0135790E-01 </wgt>
<wgt id='1532'> +4.9804580E-01 </wgt>
<wgt id='1533'> +5.1457144E-01 </wgt>
<wgt id='1534'> +5.1572832E-01 </wgt>
<wgt id='1535'> +4.9767335E-01 </wgt>
<wgt id='1536'> +5.0424475E-01 </wgt>
<wgt id='1537'> +5.0597469E-01 </wgt>
<wgt id='1538'> +5.0504699E-01 </wgt>
<wgt id='1539'> +5.0513460E-01 </wgt>
<wgt id='1540'> +5.0170301E-01 </wgt>
<wgt id='1541'> +5.0865887E-01 </wgt>
<wgt id='1542'> +5.2365802E-01 </wgt>
<wgt id='1543'> +4.6065296E-01 </wgt>
<wgt id='1544'> +4.9068100E-01 </wgt>
<wgt id='1545'> +5.3750874E-01 </wgt>
<wgt id='1546'> +5.1249516E-01 </wgt>
<wgt id='1547'> +4.9198175E-01 </wgt>
<wgt id='1548'> +4.8146175E-01 </wgt>
<wgt id='1549'> +5.1693074E-01 </wgt>
<wgt id='1550'> +5.0418916E-01 </wgt>
<wgt id='1551'> +5.0675859E-01 </wgt>
<wgt id='1552'> +4.9871659E-01 </wgt>
<wgt id='1553'> +5.1016270E-01 </wgt>
<wgt id='1554'> +5.0436886E-01 </wgt>
<wgt id='1555'> +5.0788717E-01 </wgt>
<wgt id='1556'> +5.0466345E-01 </wgt>
<wgt id='1557'> +5.0740329E-01 </wgt>
<wgt id='1558'> +5.3985304E-01 </wgt>
<wgt id='1559'> +4.7738213E-01 </wgt>
<wgt id='1560'> +4.8270298E-01 </wgt>
<wgt id='1561'> +5.1497375E-01 </wgt>
<wgt id='1562'> +5.2420997E-01 </wgt>
<wgt id='1563'> +4.8934798E-01 </wgt>
<wgt id='1564'> +5.0508715E-01 </wgt>
<wgt id='1565'> +4.7241231E-01 </wgt>
<wgt id='1566'> +5.5672899E-01 </wgt>
<wgt id='1567'> +5.1459549E-01 </wgt>
<wgt id='1568'> +5.2195975E-01 </wgt>
<wgt id='1569'> +5.1999100E-01 </wgt>
<wgt id='1570'> +5.1899237E-01 </wgt>
<wgt id='1571'> +5.1817756E-01 </wgt>
<wgt id='1572'> +5.1596122E-01 </wgt>
<wgt id='1573'> +5.1258116E-01 </wgt>
<wgt id='1574'> +5.1454922E-01 </wgt>
<wgt id='1575'> +5.1267786E-01 </wgt>
<wgt id='1576'> +5.1459549E-01 </wgt>
<wgt id='1577'> +5.1086131E-01 </wgt>
<wgt id='1578'> +5.1280476E-01 </wgt>
<wgt id='1579'> +5.1683345E-01 </wgt>
<wgt id='1580'> +5.1870317E-01 </wgt>
<wgt id='1581'> +3.9412687E-01 </wgt>
<wgt id='1582'> +3.9954572E-01 </wgt>
<wgt id='1583'> +3.9309167E-01 </wgt>
<wgt id='1584'> +3.9064398E-01 </wgt>
<wgt id='1585'> +3.9024039E-01 </wgt>
<wgt id='1586'> +4.0951554E-01 </wgt>
<wgt id='1587'> +4.0949959E-01 </wgt>
<wgt id='1588'> +3.9569614E-01 </wgt>
<wgt id='1589'> +3.9365952E-01 </wgt>
<wgt id='1590'> +4.0834641E-01 </wgt>
<wgt id='1591'> +4.0492595E-01 </wgt>
<wgt id='1592'> +3.6766567E-01 </wgt>
<wgt id='1593'> +3.9964244E-01 </wgt>
<wgt id='1594'> +4.1612537E-01 </wgt>
<wgt id='1595'> +3.9833904E-01 </wgt>
<wgt id='1596'> +4.0439067E-01 </wgt>
<wgt id='1597'> +3.9303049E-01 </wgt>
<wgt id='1598'> +4.0415365E-01 </wgt>
<wgt id='1599'> +3.8055947E-01 </wgt>
<wgt id='1600'> +3.8925821E-01 </wgt>
<wgt id='1601'> +3.8860176E-01 </wgt>
<wgt id='1602'> +3.8999952E-01 </wgt>
<wgt id='1603'> +3.9907065E-01 </wgt>
<wgt id='1604'> +3.7581550E-01 </wgt>
<wgt id='1605'> +3.9131281E-01 </wgt>
<wgt id='1606'> +3.9374240E-01 </wgt>
<wgt id='1607'> +3.9200701E-01 </wgt>
<wgt id='1608'> +3.8754577E-01 </wgt>
<wgt id='1609'> +3.8056754E-01 </wgt>
<wgt id='1610'> +3.9926343E-01 </wgt>
<wgt id='1611'> +3.6853087E-01 </wgt>
<wgt id='1612'> +3.9456693E-01 </wgt>
<wgt id='1613'> +3.9494569E-01 </wgt>
<wgt id='1614'> +3.9207847E-01 </wgt>
<wgt id='1615'> +3.9355718E-01 </wgt>
<wgt id='1616'> +3.9485546E-01 </wgt>
<wgt id='1617'> +3.9497857E-01 </wgt>
<wgt id='1618'> +3.9178525E-01 </wgt>
<wgt id='1619'> +3.9986027E-01 </wgt>
<wgt id='1620'> +3.9563468E-01 </wgt>
<wgt id='1621'> +3.9482025E-01 </wgt>
<wgt id='1622'> +3.9812952E-01 </wgt>
<wgt id='1623'> +3.9237215E-01 </wgt>
<wgt id='1624'> +3.8823583E-01 </wgt>
<wgt id='1625'> +3.8648860E-01 </wgt>
<wgt id='1626'> +3.8345937E-01 </wgt>
<wgt id='1627'> +3.8969759E-01 </wgt>
<wgt id='1628'> +3.8961612E-01 </wgt>
<wgt id='1629'> +3.9497839E-01 </wgt>
<wgt id='1630'> +3.9419359E-01 </wgt>
<wgt id='1631'> +3.9465758E-01 </wgt>
<wgt id='1632'> +3.8933313E-01 </wgt>
<wgt id='1633'> +3.9274134E-01 </wgt>
<wgt id='1634'> +3.8560916E-01 </wgt>
<wgt id='1635'> +4.0119337E-01 </wgt>
<wgt id='1636'> +3.8957830E-01 </wgt>
<wgt id='1637'> +3.8838764E-01 </wgt>
<wgt id='1638'> +3.9980286E-01 </wgt>
<wgt id='1639'> +3.9279813E-01 </wgt>
<wgt id='1640'> +3.9297280E-01 </wgt>
<wgt id='1641'> +4.0509288E-01 </wgt>
<wgt id='1642'> +3.9624581E-01 </wgt>
<wgt id='1643'> +3.8970782E-01 </wgt>
<wgt id='1644'> +3.9264396E-01 </wgt>
<wgt id='1645'> +3.9849733E-01 </wgt>
<wgt id='1646'> +3.9812332E-01 </wgt>
<wgt id='1647'> +3.8890281E-01 </wgt>
<wgt id='1648'> +3.8977018E-01 </wgt>
<wgt id='1649'> +4.0075803E-01 </wgt>
<wgt id='1650'> +4.0103214E-01 </wgt>
<wgt id='1651'> +3.9141840E-01 </wgt>
<wgt id='1652'> +3.8527220E-01 </wgt>
<wgt id='1653'> +3.8878208E-01 </wgt>
<wgt id='1654'> +4.0001017E-01 </wgt>
<wgt id='1655'> +4.1058124E-01 </wgt>
<wgt id='1656'> +4.0074226E-01 </wgt>
<wgt id='1657'> +3.9325168E-01 </wgt>
<wgt id='1658'> +3.8432235E-01 </wgt>
<wgt id='1659'> +3.8678132E-01 </wgt>
<wgt id='1660'> +3.9430843E-01 </wgt>
<wgt id='1661'> +3.9853049E-01 </wgt>
<wgt id='1662'> +3.8334263E-01 </wgt>
<wgt id='1663'> +3.9311245E-01 </wgt>
<wgt id='1664'> +3.9701482E-01 </wgt>
<wgt id='1665'> +3.9345591E-01 </wgt>
<wgt id='1666'> +3.9263275E-01 </wgt>
<wgt id='1667'> +3.8665344E-01 </wgt>
<wgt id='1668'> +3.9888484E-01 </wgt>
<wgt id='1669'> +3.9945628E-01 </wgt>
<wgt id='1670'> +3.9489374E-01 </wgt>
<wgt id='1671'> +3.9196108E-01 </wgt>
<wgt id='1672'> +3.8875843E-01 </wgt>
<wgt id='1673'> +3.9670246E-01 </wgt>
<wgt id='1674'> +3.9419189E-01 </wgt>
<wgt id='1675'> +3.9450038E-01 </wgt>
<wgt id='1676'> +3.9904921E-01 </wgt>
<wgt id='1677'> +3.9159526E-01 </wgt>
<wgt id='1678'> +4.0031380E-01 </wgt>
<wgt id='1679'> +3.9288866E-01 </wgt>
<wgt id='1680'> +3.9355742E-01 </wgt>
<wgt id='1681'> +3.9655843E-01 </wgt>
<wgt id='1682'> +3.8750974E-01 </wgt>
<wgt id='1683'> +3.9207996E-01 </wgt>
<wgt id='1684'> +3.9664271E-01 </wgt>
<wgt id='1685'> +3.8829040E-01 </wgt>
<wgt id='1686'> +3.9051864E-01 </wgt>
<wgt id='1687'> +3.9017400E-01 </wgt>
<wgt id='1688'> +4.0098034E-01 </wgt>
<wgt id='1689'> +3.8297059E-01 </wgt>
<wgt id='1690'> +3.9852394E-01 </wgt>
<wgt id='1691'> +3.9758768E-01 </wgt>
<wgt id='1692'> +3.9671971E-01 </wgt>
<wgt id='1693'> +3.9645659E-01 </wgt>
<wgt id='1694'> +3.9922624E-01 </wgt>
<wgt id='1695'> +3.9416332E-01 </wgt>
<wgt id='1696'> +3.9200309E-01 </wgt>
<wgt id='1697'> +3.9446825E-01 </wgt>
<wgt id='1698'> +3.9502273E-01 </wgt>
<wgt id='1699'> +3.9131920E-01 </wgt>
<wgt id='1700'> +3.9551257E-01 </wgt>
<wgt id='1701'> +3.9460935E-01 </wgt>
<wgt id='1702'> +3.9382807E-01 </wgt>
<wgt id='1703'> +3.9332446E-01 </wgt>
<wgt id='1704'> +3.9337182E-01 </wgt>
<wgt id='1705'> +3.9547067E-01 </wgt>
<wgt id='1706'> +3.9460922E-01 </wgt>
<wgt id='1707'> +3.9734812E-01 </wgt>
<wgt id='1708'> +3.9236824E-01 </wgt>
<wgt id='1709'> +3.9762303E-01 </wgt>
<wgt id='1710'> +3.9317602E-01 </wgt>
<wgt id='1711'> +3.9342687E-01 </wgt>
<wgt id='1712'> +3.9590044E-01 </wgt>
<wgt id='1713'> +3.7116132E-01 </wgt>
<wgt id='1714'> +4.2192406E-01 </wgt>
<wgt id='1715'> +3.9398918E-01 </wgt>
<wgt id='1716'> +4.8082392E-01 </wgt>
<wgt id='1717'> +3.7534938E-01 </wgt>
<wgt id='1718'> +3.7989290E-01 </wgt>
<wgt id='1719'> +4.1600913E-01 </wgt>
<wgt id='1720'> +4.0155376E-01 </wgt>
<wgt id='1721'> +3.8501436E-01 </wgt>
<wgt id='1722'> +4.6969380E-01 </wgt>
<wgt id='1723'> +4.3569930E-01 </wgt>
<wgt id='1724'> +3.7165755E-01 </wgt>
<wgt id='1725'> +3.2435696E-01 </wgt>
<wgt id='1726'> +3.4846473E-01 </wgt>
<wgt id='1727'> +4.1313155E-01 </wgt>
<wgt id='1728'> +4.9084311E-01 </wgt>
<wgt id='1729'> +4.9934814E-01 </wgt>
<wgt id='1730'> +4.1984162E-01 </wgt>
<wgt id='1731'> +3.8882802E-01 </wgt>
<wgt id='1732'> +3.1023319E-01 </wgt>
<wgt id='1733'> +3.6786212E-01 </wgt>
<wgt id='1734'> +2.9885090E-01 </wgt>
<wgt id='1735'> +4.9216170E-01 </wgt>
<wgt id='1736'> +5.0028252E-01 </wgt>
<wgt id='1737'> +4.2667947E-01 </wgt>
<wgt id='1738'> +4.0004479E-01 </wgt>
<wgt id='1739'> +4.0487708E-01 </wgt>
<wgt id='1740'> +5.6306283E-01 </wgt>
<wgt id='1741'> +3.6972020E-01 </wgt>
<wgt id='1742'> +3.6044561E-01 </wgt>
<wgt id='1743'> +3.6896438E-01 </wgt>
<wgt id='1744'> +4.2352768E-01 </wgt>
<wgt id='1745'> +3.9384737E-01 </wgt>
<wgt id='1746'> +4.2312828E-01 </wgt>
<wgt id='1747'> +4.8037076E-01 </wgt>
<wgt id='1748'> +4.1815597E-01 </wgt>
<wgt id='1749'> +3.9501023E-01 </wgt>
<wgt id='1750'> +3.8353606E-01 </wgt>
<wgt id='1751'> +3.5314114E-01 </wgt>
<wgt id='1752'> +3.8979076E-01 </wgt>
<wgt id='1753'> +3.5939994E-01 </wgt>
<wgt id='1754'> +3.9371612E-01 </wgt>
<wgt id='1755'> +4.2867649E-01 </wgt>
<wgt id='1756'> +3.0751211E-01 </wgt>
<wgt id='1757'> +4.1997709E-01 </wgt>
<wgt id='1758'> +4.4559146E-01 </wgt>
<wgt id='1759'> +3.8929148E-01 </wgt>
<wgt id='1760'> +3.9051142E-01 </wgt>
<wgt id='1761'> +3.9234216E-01 </wgt>
<wgt id='1762'> +4.1313155E-01 </wgt>
<wgt id='1763'> +3.5369477E-01 </wgt>
<wgt id='1764'> +4.1117593E-01 </wgt>
<wgt id='1765'> +3.5806056E-01 </wgt>
<wgt id='1766'> +2.9404366E-01 </wgt>
<wgt id='1767'> +3.0337652E-01 </wgt>
<wgt id='1768'> +4.0467801E-01 </wgt>
<wgt id='1769'> +5.0630276E-01 </wgt>
<wgt id='1770'> +3.7733834E-01 </wgt>
<wgt id='1771'> +4.1087275E-01 </wgt>
<wgt id='1772'> +3.2473898E-01 </wgt>
<wgt id='1773'> +3.9227372E-01 </wgt>
<wgt id='1774'> +3.2041868E-01 </wgt>
<wgt id='1775'> +3.5061544E-01 </wgt>
<wgt id='1776'> +3.7379371E-01 </wgt>
<wgt id='1777'> +4.1891187E-01 </wgt>
<wgt id='1778'> +3.4825104E-01 </wgt>
<wgt id='1779'> +3.2375892E-01 </wgt>
<wgt id='1780'> +3.5022350E-01 </wgt>
<wgt id='1781'> +4.2796999E-01 </wgt>
<wgt id='1782'> +2.9795631E-01 </wgt>
<wgt id='1783'> +3.7343236E-01 </wgt>
<wgt id='1784'> +3.2601378E-01 </wgt>
<wgt id='1785'> +3.9428258E-01 </wgt>
<wgt id='1786'> +3.1149322E-01 </wgt>
<wgt id='1787'> +4.6214184E-01 </wgt>
<wgt id='1788'> +4.4956349E-01 </wgt>
<wgt id='1789'> +3.9491589E-01 </wgt>
<wgt id='1790'> +3.5364898E-01 </wgt>
<wgt id='1791'> +4.5564939E-01 </wgt>
<wgt id='1792'> +3.6875001E-01 </wgt>
<wgt id='1793'> +3.5293009E-01 </wgt>
<wgt id='1794'> +3.5326053E-01 </wgt>
<wgt id='1795'> +3.5214609E-01 </wgt>
<wgt id='1796'> +4.1433794E-01 </wgt>
<wgt id='1797'> +4.5942439E-01 </wgt>
<wgt id='1798'> +4.1957102E-01 </wgt>
<wgt id='1799'> +3.5581224E-01 </wgt>
<wgt id='1800'> +3.3315307E-01 </wgt>
<wgt id='1801'> +3.7182426E-01 </wgt>
<wgt id='1802'> +3.7321366E-01 </wgt>
<wgt id='1803'> +4.1384178E-01 </wgt>
<wgt id='1804'> +4.1780586E-01 </wgt>
<wgt id='1805'> +3.7383404E-01 </wgt>
<wgt id='1806'> +3.5781049E-01 </wgt>
<wgt id='1807'> +4.5050668E-01 </wgt>
<wgt id='1808'> +4.0204287E-01 </wgt>
<wgt id='1809'> +3.8188744E-01 </wgt>
<wgt id='1810'> +4.3111642E-01 </wgt>
<wgt id='1811'> +4.3011993E-01 </wgt>
<wgt id='1812'> +4.3937325E-01 </wgt>
<wgt id='1813'> +4.7758178E-01 </wgt>
<wgt id='1814'> +3.8653171E-01 </wgt>
<wgt id='1815'> +3.5434224E-01 </wgt>
<wgt id='1816'> +3.9934494E-01 </wgt>
<wgt id='1817'> +4.0676792E-01 </wgt>
<wgt id='1818'> +4.8910484E-01 </wgt>
<wgt id='1819'> +4.8007545E-01 </wgt>
<wgt id='1820'> +4.0861272E-01 </wgt>
<wgt id='1821'> +3.3029658E-01 </wgt>
<wgt id='1822'> +4.5287423E-01 </wgt>
<wgt id='1823'> +2.9213182E-01 </wgt>
<wgt id='1824'> +4.4933271E-01 </wgt>
<wgt id='1825'> +4.2127946E-01 </wgt>
<wgt id='1826'> +4.7677616E-01 </wgt>
<wgt id='1827'> +4.0849162E-01 </wgt>
<wgt id='1828'> +3.6142131E-01 </wgt>
<wgt id='1829'> +4.3951211E-01 </wgt>
<wgt id='1830'> +3.8801383E-01 </wgt>
<wgt id='1831'> +4.0477891E-01 </wgt>
<wgt id='1832'> +3.9446917E-01 </wgt>
<wgt id='1833'> +6.8137839E-01 </wgt>
<wgt id='1834'> +5.0174221E-01 </wgt>
<wgt id='1835'> +3.3246731E-01 </wgt>
<wgt id='1836'> +3.3911036E-01 </wgt>
<wgt id='1837'> +2.7677607E-01 </wgt>
<wgt id='1838'> +2.6398438E-01 </wgt>
<wgt id='1839'> +2.9216558E-01 </wgt>
<wgt id='1840'> +3.2263530E-01 </wgt>
<wgt id='1841'> +3.8282820E-01 </wgt>
<wgt id='1842'> +3.8667482E-01 </wgt>
<wgt id='1843'> +5.7882093E-01 </wgt>
<wgt id='1844'> +4.4955574E-01 </wgt>
<wgt id='1845'> +4.6283723E-01 </wgt>
<wgt id='1846'> +3.4192356E-01 </wgt>
<wgt id='1847'> +3.5466648E-01 </wgt>
<wgt id='1848'> +3.4181302E-01 </wgt>
<wgt id='1849'> +3.7710946E-01 </wgt>
<wgt id='1850'> +2.5758718E-01 </wgt>
<wgt id='1851'> +4.6388062E-01 </wgt>
<wgt id='1852'> +3.6486449E-01 </wgt>
<wgt id='1853'> +4.2949350E-01 </wgt>
<wgt id='1854'> +3.1285917E-01 </wgt>
<wgt id='1855'> +3.4412815E-01 </wgt>
<wgt id='1856'> +3.7011646E-01 </wgt>
<wgt id='1857'> +2.9994777E-01 </wgt>
<wgt id='1858'> +4.2794457E-01 </wgt>
<wgt id='1859'> +3.6220149E-01 </wgt>
<wgt id='1860'> +5.0696913E-01 </wgt>
<wgt id='1861'> +3.2471375E-01 </wgt>
<wgt id='1862'> +2.4018036E-01 </wgt>
<wgt id='1863'> +5.2836050E-01 </wgt>
<wgt id='1864'> +4.7581404E-01 </wgt>
<wgt id='1865'> +4.0223170E-01 </wgt>
<wgt id='1866'> +3.7979973E-01 </wgt>
<wgt id='1867'> +4.0886389E-01 </wgt>
<wgt id='1868'> +4.1357099E-01 </wgt>
<wgt id='1869'> +3.1084242E-01 </wgt>
<wgt id='1870'> +5.0012183E-01 </wgt>
<wgt id='1871'> +4.1464231E-01 </wgt>
<wgt id='1872'> +5.2993437E-01 </wgt>
<wgt id='1873'> +3.4094571E-01 </wgt>
<wgt id='1874'> +4.2333372E-01 </wgt>
<wgt id='1875'> +3.8230804E-01 </wgt>
<wgt id='1876'> +3.4587405E-01 </wgt>
<wgt id='1877'> +2.6529477E-01 </wgt>
<wgt id='1878'> +3.5267731E-01 </wgt>
<wgt id='1879'> +4.0579743E-01 </wgt>
<wgt id='1880'> +6.0616867E-01 </wgt>
<wgt id='1881'> +5.1745124E-01 </wgt>
<wgt id='1882'> +3.1743830E-01 </wgt>
<wgt id='1883'> +3.3200559E-01 </wgt>
<wgt id='1884'> +3.8013475E-01 </wgt>
<wgt id='1885'> +4.6650417E-01 </wgt>
<wgt id='1886'> +5.1665349E-01 </wgt>
<wgt id='1887'> +2.8537955E-01 </wgt>
<wgt id='1888'> +3.7581300E-01 </wgt>
<wgt id='1889'> +4.2139476E-01 </wgt>
<wgt id='1890'> +4.5513649E-01 </wgt>
<wgt id='1891'> +3.8612886E-01 </wgt>
<wgt id='1892'> +3.3532189E-01 </wgt>
<wgt id='1893'> +3.1816712E-01 </wgt>
<wgt id='1894'> +4.3420425E-01 </wgt>
<wgt id='1895'> +3.7442136E-01 </wgt>
<wgt id='1896'> +3.7291622E-01 </wgt>
<wgt id='1897'> +2.9239070E-01 </wgt>
<wgt id='1898'> +3.4472660E-01 </wgt>
<wgt id='1899'> +4.5735633E-01 </wgt>
<wgt id='1900'> +3.4192685E-01 </wgt>
<wgt id='1901'> +4.6084210E-01 </wgt>
<wgt id='1902'> +5.0586819E-01 </wgt>
<wgt id='1903'> +4.4360731E-01 </wgt>
<wgt id='1904'> +4.4383841E-01 </wgt>
<wgt id='1905'> +3.9612062E-01 </wgt>
<wgt id='1906'> +3.9718225E-01 </wgt>
<wgt id='1907'> +3.9439668E-01 </wgt>
<wgt id='1908'> +3.3333903E-01 </wgt>
<wgt id='1909'> +4.1748449E-01 </wgt>
<wgt id='1910'> +3.3964588E-01 </wgt>
<wgt id='1911'> +5.3849689E-01 </wgt>
<wgt id='1912'> +3.7186490E-01 </wgt>
<wgt id='1913'> +4.1308104E-01 </wgt>
<wgt id='1914'> +2.6799704E-01 </wgt>
<wgt id='1915'> +4.3238437E-01 </wgt>
<wgt id='1916'> +5.5144745E-01 </wgt>
<wgt id='1917'> +2.5592420E-01 </wgt>
<wgt id='1918'> +2.1713347E-01 </wgt>
<wgt id='1919'> +3.9934494E-01 </wgt>
<wgt id='1920'> +4.0676792E-01 </wgt>
<wgt id='1921'> +4.8910484E-01 </wgt>
<wgt id='1922'> +4.8007545E-01 </wgt>
<wgt id='1923'> +4.0861272E-01 </wgt>
<wgt id='1924'> +3.3029658E-01 </wgt>
<wgt id='1925'> +4.5287423E-01 </wgt>
<wgt id='1926'> +2.9213182E-01 </wgt>
<wgt id='1927'> +4.4933271E-01 </wgt>
<wgt id='1928'> +4.2127946E-01 </wgt>
<wgt id='1929'> +4.7677616E-01 </wgt>
<wgt id='1930'> +4.0849162E-01 </wgt>
<wgt id='1931'> +3.6142131E-01 </wgt>
<wgt id='1932'> +4.3951211E-01 </wgt>
<wgt id='1933'> +3.8801383E-01 </wgt>
<wgt id='1934'> +4.0477891E-01 </wgt>
<wgt id='1935'> +3.9446917E-01 </wgt>
<wgt id='1936'> +6.8137839E-01 </wgt>
<wgt id='1937'> +5.0174221E-01 </wgt>
<wgt id='1938'> +3.3246731E-01 </wgt>
<wgt id='1939'> +3.3911036E-01 </wgt>
<wgt id='1940'> +2.7677607E-01 </wgt>
<wgt id='1941'> +2.6398438E-01 </wgt>
<wgt id='1942'> +2.9216558E-01 </wgt>
<wgt id='1943'> +3.2263530E-01 </wgt>
<wgt id='1944'> +3.8282820E-01 </wgt>
<wgt id='1945'> +3.8667482E-01 </wgt>
<wgt id='1946'> +5.7882093E-01 </wgt>
<wgt id='1947'> +4.4955574E-01 </wgt>
<wgt id='1948'> +4.6283723E-01 </wgt>
<wgt id='1949'> +3.4192356E-01 </wgt>
<wgt id='1950'> +3.5466648E-01 </wgt>
<wgt id='1951'> +3.4181302E-01 </wgt>
<wgt id='1952'> +3.7710946E-01 </wgt>
<wgt id='1953'> +2.5758718E-01 </wgt>
<wgt id='1954'> +4.6388062E-01 </wgt>
<wgt id='1955'> +3.6486449E-01 </wgt>
<wgt id='1956'> +4.2949350E-01 </wgt>
<wgt id='1957'> +3.1285917E-01 </wgt>
<wgt id='1958'> +3.4412815E-01 </wgt>
<wgt id='1959'> +3.7011646E-01 </wgt>
<wgt id='1960'> +2.9994777E-01 </wgt>
<wgt id='1961'> +4.2794457E-01 </wgt>
<wgt id='1962'> +3.6220149E-01 </wgt>
<wgt id='1963'> +5.0696913E-01 </wgt>
<wgt id='1964'> +3.2471375E-01 </wgt>
<wgt id='1965'> +2.4018036E-01 </wgt>
<wgt id='1966'> +5.2836050E-01 </wgt>
<wgt id='1967'> +4.7581404E-01 </wgt>
<wgt id='1968'> +4.0223170E-01 </wgt>
<wgt id='1969'> +3.7979973E-01 </wgt>
<wgt id='1970'> +4.0886389E-01 </wgt>
<wgt id='1971'> +4.1357099E-01 </wgt>
<wgt id='1972'> +3.1084242E-01 </wgt>
<wgt id='1973'> +5.0012183E-01 </wgt>
<wgt id='1974'> +4.1464231E-01 </wgt>
<wgt id='1975'> +5.2993437E-01 </wgt>
<wgt id='1976'> +3.4094571E-01 </wgt>
<wgt id='1977'> +4.2333372E-01 </wgt>
<wgt id='1978'> +3.8230804E-01 </wgt>
<wgt id='1979'> +3.4587405E-01 </wgt>
<wgt id='1980'> +2.6529477E-01 </wgt>
<wgt id='1981'> +3.5267731E-01 </wgt>
<wgt id='1982'> +4.0579743E-01 </wgt>
<wgt id='1983'> +6.0616867E-01 </wgt>
<wgt id='1984'> +5.1745124E-01 </wgt>
<wgt id='1985'> +3.1743830E-01 </wgt>
<wgt id='1986'> +3.3200559E-01 </wgt>
<wgt id='1987'> +3.8013475E-01 </wgt>
<wgt id='1988'> +4.6650417E-01 </wgt>
<wgt id='1989'> +5.1665349E-01 </wgt>
<wgt id='1990'> +2.8537955E-01 </wgt>
<wgt id='1991'> +3.7581300E-01 </wgt>
<wgt id='1992'> +4.2139476E-01 </wgt>
<wgt id='1993'> +4.5513649E-01 </wgt>
<wgt id='1994'> +3.8612886E-01 </wgt>
<wgt id='1995'> +3.3532189E-01 </wgt>
<wgt id='1996'> +3.1816712E-01 </wgt>
<wgt id='1997'> +4.3420425E-01 </wgt>
<wgt id='1998'> +3.7442136E-01 </wgt>
<wgt id='1999'> +3.7291622E-01 </wgt>
<wgt id='2000'> +2.9239070E-01 </wgt>
<wgt id='2001'> +3.4472660E-01 </wgt>
<wgt id='2002'> +4.5735633E-01 </wgt>
<wgt id='2003'> +3.4192685E-01 </wgt>
<wgt id='2004'> +4.6084210E-01 </wgt>
<wgt id='2005'> +5.0586819E-01 </wgt>
<wgt id='2006'> +4.4360731E-01 </wgt>
<wgt id='2007'> +4.4383841E-01 </wgt>
<wgt id='2008'> +3.9612062E-01 </wgt>
<wgt id='2009'> +3.9718225E-01 </wgt>
<wgt id='2010'> +3.9439668E-01 </wgt>
<wgt id='2011'> +3.3333903E-01 </wgt>
<wgt id='2012'> +4.1748449E-01 </wgt>
<wgt id='2013'> +3.3964588E-01 </wgt>
<wgt id='2014'> +5.3849689E-01 </wgt>
<wgt id='2015'> +3.7186490E-01 </wgt>
<wgt id='2016'> +4.1308104E-01 </wgt>
<wgt id='2017'> +2.6799704E-01 </wgt>
<wgt id='2018'> +4.3238437E-01 </wgt>
<wgt id='2019'> +5.5144745E-01 </wgt>
<wgt id='2020'> +3.8450383E-01 </wgt>
<wgt id='2021'> +4.3345463E-01 </wgt>
<wgt id='2022'> +3.9955484E-01 </wgt>
</rwgt>
</event>
<event>
13      1 +3.9556008E-01 2.41126800e+02 7.81860800e-03 1.07697300e-01
       21 -1    0    0  502  503 +0.0000000000e+00 +0.0000000000e+00 +1.9096409840e+02 1.9096409840e+02 0.0000000000e+00 0.0000e+00 -1.0000e+00
        2 -1    0    0  501    0 +0.0000000000e+00 +0.0000000000e+00 -1.5521879576e+03 1.5521879576e+03 2.5500000000e-03 0.0000e+00 -1.0000e+00
  8000001  2    1    2  502    0 +9.0173377903e+01 -2.1107289634e+01 -9.8195983274e+02 1.1544790071e+03 5.9999992417e+02 0.0000e+00 0.0000e+00
        1  1    1    2  501    0 -3.1113397052e+00 +6.1689081092e+01 -4.5937445204e+02 4.6350847929e+02 5.0400000000e-03 0.0000e+00 -1.0000e+00
       -5  1    1    2    0  503 -8.7062038197e+01 -4.0581791458e+01 +8.0110425585e+01 1.2516456959e+02 4.6700000000e+00 0.0000e+00 -1.0000e+00
        6  2    3    3  502    0 +3.0822799691e+02 -4.8564759903e+01 -6.9783335105e+02 7.8348540972e+02 1.7179920673e+02 0.0000e+00 0.0000e+00
        5  1    6    6  502    0 +2.7755122238e+01 -1.3183189789e+01 -2.2378377827e+02 2.2593169680e+02 4.6700000000e+00 0.0000e+00 -1.0000e+00
       24  2    6    6    0    0 +2.8047287467e+02 -3.5381570115e+01 -4.7404957278e+02 5.5755371293e+02 7.8906630970e+01 0.0000e+00 0.0000e+00
        4  1    8    8  504    0 +2.7832506645e+02 -3.7557381194e+01 -4.7684750657e+02 5.5340812871e+02 1.2700000000e+00 0.0000e+00 -1.0000e+00
       -3  1    8    8    0  504 +2.1478082217e+00 +2.1758110789e+00 +2.7979337895e+00 4.1455842169e+00 1.0100000000e-01 0.0000e+00 1.0000e+00
       23  2    3    3    0    0 -2.1805461901e+02 +2.7457470270e+01 -2.8412648169e+02 3.7099359739e+02 9.2772097972e+01 0.0000e+00 0.0000e+00
        5  1   11   11  505    0 -8.7479915297e+01 -2.8147831256e+01 -1.4808601125e+02 1.7434538025e+02 4.6700000000e+00 0.0000e+00 -1.0000e+00
       -5  1   11   11    0  505 -1.3057470371e+02 +5.5605301525e+01 -1.3604047044e+02 1.9664821714e+02 4.6700000000e+00 0.0000e+00 1.0000e+00
<mgrwt>
<rscale>  1 0.12204016e+03</rscale>
<asrwt>0</asrwt>
<pdfrwt beam="1">  1       21 0.29379093e-01 0.24112684e+03</pdfrwt>
<pdfrwt beam="2">  1        2 0.23879814e+00 0.61767493e+02</pdfrwt>
<totfact> 0.23688493e+03</totfact>
</mgrwt>
<rwgt>
<wgt id='1001'> +3.9556008E-01 </wgt>
<wgt id='1002'> +2.5475367E-01 </wgt>
<wgt id='1003'> +2.5471518E-01 </wgt>
<wgt id='1004'> +2.9569553E-01 </wgt>
<wgt id='1005'> +2.3318271E-01 </wgt>
<wgt id='1006'> +3.5818821E-01 </wgt>
<wgt id='1007'> +2.3551355E-01 </wgt>
<wgt id='1008'> +2.3547956E-01 </wgt>
<wgt id='1009'> +2.7145232E-01 </wgt>
<wgt id='1010'> +2.1639615E-01 </wgt>
<wgt id='1011'> +4.4195500E-01 </wgt>
<wgt id='1012'> +2.7750779E-01 </wgt>
<wgt id='1013'> +2.7746360E-01 </wgt>
<wgt id='1014'> +3.2483828E-01 </wgt>
<wgt id='1015'> +2.5286394E-01 </wgt>
<wgt id='1016'> +3.6770672E-01 </wgt>
<wgt id='1017'> +2.3956331E-01 </wgt>
<wgt id='1018'> +2.3952733E-01 </wgt>
<wgt id='1019'> +2.7746360E-01 </wgt>
<wgt id='1020'> +2.1956994E-01 </wgt>
<wgt id='1021'> +3.3296640E-01 </wgt>
<wgt id='1022'> +2.2147042E-01 </wgt>
<wgt id='1023'> +2.2143867E-01 </wgt>
<wgt id='1024'> +2.5471518E-01 </wgt>
<wgt id='1025'> +2.0376335E-01 </wgt>
<wgt id='1026'> +4.1083475E-01 </wgt>
<wgt id='1027'> +2.6096064E-01 </wgt>
<wgt id='1028'> +2.6091935E-01 </wgt>
<wgt id='1029'> +3.0480948E-01 </wgt>
<wgt id='1030'> +2.3810222E-01 </wgt>
<wgt id='1031'> +4.2685004E-01 </wgt>
<wgt id='1032'> +2.7149426E-01 </wgt>
<wgt id='1033'> +2.7145232E-01 </wgt>
<wgt id='1034'> +3.1560073E-01 </wgt>
<wgt id='1035'> +2.4811266E-01 </wgt>
<wgt id='1036'> +3.8652195E-01 </wgt>
<wgt id='1037'> +2.5098981E-01 </wgt>
<wgt id='1038'> +2.5095275E-01 </wgt>
<wgt id='1039'> +2.8972556E-01 </wgt>
<wgt id='1040'> +2.3025131E-01 </wgt>
<wgt id='1041'> +4.7691493E-01 </wgt>
<wgt id='1042'> +2.9574361E-01 </wgt>
<wgt id='1043'> +2.9569553E-01 </wgt>
<wgt id='1044'> +3.4670527E-01 </wgt>
<wgt id='1045'> +2.6905402E-01 </wgt>
<wgt id='1046'> +3.9556008E-01 </wgt>
<wgt id='1047'> +3.9556008E-01 </wgt>
<wgt id='1048'> +3.9556008E-01 </wgt>
<wgt id='1049'> +3.9586552E-01 </wgt>
<wgt id='1050'> +3.9515880E-01 </wgt>
<wgt id='1051'> +3.9620013E-01 </wgt>
<wgt id='1052'> +3.9482236E-01 </wgt>
<wgt id='1053'> +3.9751193E-01 </wgt>
<wgt id='1054'> +3.9553780E-01 </wgt>
<wgt id='1055'> +3.9586755E-01 </wgt>
<wgt id='1056'> +3.9642568E-01 </wgt>
<wgt id='1057'> +3.9525024E-01 </wgt>
<wgt id='1058'> +3.9557361E-01 </wgt>
<wgt id='1059'> +3.9432922E-01 </wgt>
<wgt id='1060'> +3.9538615E-01 </wgt>
<wgt id='1061'> +3.9568359E-01 </wgt>
<wgt id='1062'> +3.9611811E-01 </wgt>
<wgt id='1063'> +3.9507936E-01 </wgt>
<wgt id='1064'> +3.9556932E-01 </wgt>
<wgt id='1065'> +3.9567299E-01 </wgt>
<wgt id='1066'> +3.9491250E-01 </wgt>
<wgt id='1067'> +3.9675247E-01 </wgt>
<wgt id='1068'> +3.9398338E-01 </wgt>
<wgt id='1069'> +3.9575510E-01 </wgt>
<wgt id='1070'> +3.9547385E-01 </wgt>
<wgt id='1071'> +3.9525718E-01 </wgt>
<wgt id='1072'> +3.9649335E-01 </wgt>
<wgt id='1073'> +3.9532022E-01 </wgt>
<wgt id='1074'> +3.9584245E-01 </wgt>
<wgt id='1075'> +3.9381148E-01 </wgt>
<wgt id='1076'> +3.9669443E-01 </wgt>
<wgt id='1077'> +3.9721422E-01 </wgt>
<wgt id='1078'> +3.9531824E-01 </wgt>
<wgt id='1079'> +3.9765542E-01 </wgt>
<wgt id='1080'> +3.9671312E-01 </wgt>
<wgt id='1081'> +3.9619635E-01 </wgt>
<wgt id='1082'> +3.9636590E-01 </wgt>
<wgt id='1083'> +3.9507030E-01 </wgt>
<wgt id='1084'> +3.9465496E-01 </wgt>
<wgt id='1085'> +3.9656582E-01 </wgt>
<wgt id='1086'> +3.9482603E-01 </wgt>
<wgt id='1087'> +3.9566378E-01 </wgt>
<wgt id='1088'> +3.9593515E-01 </wgt>
<wgt id='1089'> +3.9580972E-01 </wgt>
<wgt id='1090'> +3.9553132E-01 </wgt>
<wgt id='1091'> +3.9482896E-01 </wgt>
<wgt id='1092'> +3.9475717E-01 </wgt>
<wgt id='1093'> +3.9554417E-01 </wgt>
<wgt id='1094'> +3.9566400E-01 </wgt>
<wgt id='1095'> +3.9477251E-01 </wgt>
<wgt id='1096'> +3.9481648E-01 </wgt>
<wgt id='1097'> +3.9543555E-01 </wgt>
<wgt id='1098'> +3.9555072E-01 </wgt>
<wgt id='1099'> +3.9553017E-01 </wgt>
<wgt id='1100'> +3.9565704E-01 </wgt>
<wgt id='1101'> +3.9525458E-01 </wgt>
<wgt id='1102'> +3.9562503E-01 </wgt>
<wgt id='1103'> +3.9605015E-01 </wgt>
<wgt id='1104'> +3.9565241E-01 </wgt>
<wgt id='1105'> +3.9589219E-01 </wgt>
<wgt id='1106'> +3.9584058E-01 </wgt>
<wgt id='1107'> +3.9532216E-01 </wgt>
<wgt id='1108'> +3.9578427E-01 </wgt>
<wgt id='1109'> +3.9588420E-01 </wgt>
<wgt id='1110'> +3.9548092E-01 </wgt>
<wgt id='1111'> +3.9525090E-01 </wgt>
<wgt id='1112'> +3.9584763E-01 </wgt>
<wgt id='1113'> +3.9540140E-01 </wgt>
<wgt id='1114'> +3.9471059E-01 </wgt>
<wgt id='1115'> +3.9591149E-01 </wgt>
<wgt id='1116'> +3.9558716E-01 </wgt>
<wgt id='1117'> +3.9581771E-01 </wgt>
<wgt id='1118'> +3.9550702E-01 </wgt>
<wgt id='1119'> +3.9576202E-01 </wgt>
<wgt id='1120'> +3.9530127E-01 </wgt>
<wgt id='1121'> +3.9611661E-01 </wgt>
<wgt id='1122'> +3.9556674E-01 </wgt>
<wgt id='1123'> +3.9567329E-01 </wgt>
<wgt id='1124'> +3.9539599E-01 </wgt>
<wgt id='1125'> +3.9547182E-01 </wgt>
<wgt id='1126'> +3.9554138E-01 </wgt>
<wgt id='1127'> +3.9585097E-01 </wgt>
<wgt id='1128'> +3.9545784E-01 </wgt>
<wgt id='1129'> +3.9555838E-01 </wgt>
<wgt id='1130'> +3.9571240E-01 </wgt>
<wgt id='1131'> +3.9580512E-01 </wgt>
<wgt id='1132'> +3.9541334E-01 </wgt>
<wgt id='1133'> +3.9569120E-01 </wgt>
<wgt id='1134'> +3.9547230E-01 </wgt>
<wgt id='1135'> +3.9582850E-01 </wgt>
<wgt id='1136'> +3.9572800E-01 </wgt>
<wgt id='1137'> +3.9555494E-01 </wgt>
<wgt id='1138'> +3.9573801E-01 </wgt>
<wgt id='1139'> +3.9553594E-01 </wgt>
<wgt id='1140'> +3.9584996E-01 </wgt>
<wgt id='1141'> +3.9556480E-01 </wgt>
<wgt id='1142'> +3.9564275E-01 </wgt>
<wgt id='1143'> +3.9578853E-01 </wgt>
<wgt id='1144'> +3.9536649E-01 </wgt>
<wgt id='1145'> +3.9540516E-01 </wgt>
<wgt id='1146'> +3.9557614E-01 </wgt>
<wgt id='1147'> +3.9576825E-01 </wgt>
<wgt id='1148'> +3.9556008E-01 </wgt>
<wgt id='1149'> +3.8535349E-01 </wgt>
<wgt id='1150'> +3.8275943E-01 </wgt>
<wgt id='1151'> +3.8509046E-01 </wgt>
<wgt id='1152'> +3.8970897E-01 </wgt>
<wgt id='1153'> +3.8126323E-01 </wgt>
<wgt id='1154'> +3.8711710E-01 </wgt>
<wgt id='1155'> +3.8747980E-01 </wgt>
<wgt id='1156'> +3.8870110E-01 </wgt>
<wgt id='1157'> +3.9095180E-01 </wgt>
<wgt id='1158'> +3.8915139E-01 </wgt>
<wgt id='1159'> +3.6525230E-01 </wgt>
<wgt id='1160'> +3.8448523E-01 </wgt>
<wgt id='1161'> +3.8918730E-01 </wgt>
<wgt id='1162'> +3.7737338E-01 </wgt>
<wgt id='1163'> +3.8945033E-01 </wgt>
<wgt id='1164'> +3.9304292E-01 </wgt>
<wgt id='1165'> +3.8603229E-01 </wgt>
<wgt id='1166'> +3.8880770E-01 </wgt>
<wgt id='1167'> +3.8908976E-01 </wgt>
<wgt id='1168'> +3.8325552E-01 </wgt>
<wgt id='1169'> +3.8094030E-01 </wgt>
<wgt id='1170'> +3.8730739E-01 </wgt>
<wgt id='1171'> +3.8665999E-01 </wgt>
<wgt id='1172'> +3.8875184E-01 </wgt>
<wgt id='1173'> +3.8073799E-01 </wgt>
<wgt id='1174'> +3.9101360E-01 </wgt>
<wgt id='1175'> +3.9098848E-01 </wgt>
<wgt id='1176'> +3.6978930E-01 </wgt>
<wgt id='1177'> +3.9064232E-01 </wgt>
<wgt id='1178'> +3.8715276E-01 </wgt>
<wgt id='1179'> +3.8129257E-01 </wgt>
<wgt id='1180'> +3.8868201E-01 </wgt>
<wgt id='1181'> +3.8691907E-01 </wgt>
<wgt id='1182'> +3.8923529E-01 </wgt>
<wgt id='1183'> +3.8118756E-01 </wgt>
<wgt id='1184'> +3.8572552E-01 </wgt>
<wgt id='1185'> +3.8953006E-01 </wgt>
<wgt id='1186'> +3.8631485E-01 </wgt>
<wgt id='1187'> +3.8520179E-01 </wgt>
<wgt id='1188'> +3.8148619E-01 </wgt>
<wgt id='1189'> +3.8872033E-01 </wgt>
<wgt id='1190'> +3.8568580E-01 </wgt>
<wgt id='1191'> +3.8388412E-01 </wgt>
<wgt id='1192'> +3.7982208E-01 </wgt>
<wgt id='1193'> +3.8422255E-01 </wgt>
<wgt id='1194'> +3.8664396E-01 </wgt>
<wgt id='1195'> +3.8417780E-01 </wgt>
<wgt id='1196'> +3.7997618E-01 </wgt>
<wgt id='1197'> +3.8348921E-01 </wgt>
<wgt id='1198'> +3.8855069E-01 </wgt>
<wgt id='1199'> +3.8474398E-01 </wgt>
<wgt id='1200'> +3.8865158E-01 </wgt>
<wgt id='1201'> +3.8946791E-01 </wgt>
<wgt id='1202'> +3.8589993E-01 </wgt>
<wgt id='1203'> +3.9192002E-01 </wgt>
<wgt id='1204'> +3.8908038E-01 </wgt>
<wgt id='1205'> +3.8055106E-01 </wgt>
<wgt id='1206'> +3.8755177E-01 </wgt>
<wgt id='1207'> +3.8607129E-01 </wgt>
<wgt id='1208'> +3.9217955E-01 </wgt>
<wgt id='1209'> +3.9444715E-01 </wgt>
<wgt id='1210'> +3.7741086E-01 </wgt>
<wgt id='1211'> +3.8458991E-01 </wgt>
<wgt id='1212'> +3.8038687E-01 </wgt>
<wgt id='1213'> +3.9112589E-01 </wgt>
<wgt id='1214'> +3.8789940E-01 </wgt>
<wgt id='1215'> +3.8357780E-01 </wgt>
<wgt id='1216'> +3.8417929E-01 </wgt>
<wgt id='1217'> +3.8156813E-01 </wgt>
<wgt id='1218'> +3.8305651E-01 </wgt>
<wgt id='1219'> +3.7957682E-01 </wgt>
<wgt id='1220'> +3.9196725E-01 </wgt>
<wgt id='1221'> +3.7457017E-01 </wgt>
<wgt id='1222'> +3.8935487E-01 </wgt>
<wgt id='1223'> +3.8444274E-01 </wgt>
<wgt id='1224'> +3.8109174E-01 </wgt>
<wgt id='1225'> +3.9084680E-01 </wgt>
<wgt id='1226'> +3.7602638E-01 </wgt>
<wgt id='1227'> +3.9745914E-01 </wgt>
<wgt id='1228'> +3.8547150E-01 </wgt>
<wgt id='1229'> +3.7334875E-01 </wgt>
<wgt id='1230'> +3.8290515E-01 </wgt>
<wgt id='1231'> +3.8603229E-01 </wgt>
<wgt id='1232'> +3.7661312E-01 </wgt>
<wgt id='1233'> +3.8659818E-01 </wgt>
<wgt id='1234'> +3.9628825E-01 </wgt>
<wgt id='1235'> +3.7336436E-01 </wgt>
<wgt id='1236'> +3.9405832E-01 </wgt>
<wgt id='1237'> +3.8029157E-01 </wgt>
<wgt id='1238'> +3.7600854E-01 </wgt>
<wgt id='1239'> +3.9130664E-01 </wgt>
<wgt id='1240'> +3.9290727E-01 </wgt>
<wgt id='1241'> +3.9047271E-01 </wgt>
<wgt id='1242'> +3.8611170E-01 </wgt>
<wgt id='1243'> +3.8149156E-01 </wgt>
<wgt id='1244'> +3.8308107E-01 </wgt>
<wgt id='1245'> +3.9302222E-01 </wgt>
<wgt id='1246'> +3.7493899E-01 </wgt>
<wgt id='1247'> +3.8187696E-01 </wgt>
<wgt id='1248'> +3.8664806E-01 </wgt>
<wgt id='1249'> +3.8871037E-01 </wgt>
<wgt id='1250'> +3.8634237E-01 </wgt>
<wgt id='1251'> +3.8213042E-01 </wgt>
<wgt id='1252'> +3.9179890E-01 </wgt>
<wgt id='1253'> +3.8961063E-01 </wgt>
<wgt id='1254'> +3.5670447E-01 </wgt>
<wgt id='1255'> +4.0076079E-01 </wgt>
<wgt id='1256'> +4.0337040E-01 </wgt>
<wgt id='1257'> +3.9922995E-01 </wgt>
<wgt id='1258'> +4.0024263E-01 </wgt>
<wgt id='1259'> +4.0100945E-01 </wgt>
<wgt id='1260'> +4.0156730E-01 </wgt>
<wgt id='1261'> +3.9965487E-01 </wgt>
<wgt id='1262'> +4.0135480E-01 </wgt>
<wgt id='1263'> +4.0036958E-01 </wgt>
<wgt id='1264'> +4.0039572E-01 </wgt>
<wgt id='1265'> +4.0100624E-01 </wgt>
<wgt id='1266'> +4.0081985E-01 </wgt>
<wgt id='1267'> +4.0068562E-01 </wgt>
<wgt id='1268'> +4.0433939E-01 </wgt>
<wgt id='1269'> +3.9718569E-01 </wgt>
<wgt id='1270'> +4.0033233E-01 </wgt>
<wgt id='1271'> +4.0074175E-01 </wgt>
<wgt id='1272'> +4.0115857E-01 </wgt>
<wgt id='1273'> +4.0042547E-01 </wgt>
<wgt id='1274'> +3.9998297E-01 </wgt>
<wgt id='1275'> +4.0172362E-01 </wgt>
<wgt id='1276'> +3.9997828E-01 </wgt>
<wgt id='1277'> +4.0156156E-01 </wgt>
<wgt id='1278'> +3.9886796E-01 </wgt>
<wgt id='1279'> +4.0228188E-01 </wgt>
<wgt id='1280'> +4.0059809E-01 </wgt>
<wgt id='1281'> +4.0105060E-01 </wgt>
<wgt id='1282'> +4.0301587E-01 </wgt>
<wgt id='1283'> +3.9805321E-01 </wgt>
<wgt id='1284'> +3.9938604E-01 </wgt>
<wgt id='1285'> +4.0195858E-01 </wgt>
<wgt id='1286'> +4.0224063E-01 </wgt>
<wgt id='1287'> +4.0068383E-01 </wgt>
<wgt id='1288'> +4.0051175E-01 </wgt>
<wgt id='1289'> +4.0078140E-01 </wgt>
<wgt id='1290'> +4.0137267E-01 </wgt>
<wgt id='1291'> +4.0053778E-01 </wgt>
<wgt id='1292'> +4.0226826E-01 </wgt>
<wgt id='1293'> +3.9841041E-01 </wgt>
<wgt id='1294'> +3.9835757E-01 </wgt>
<wgt id='1295'> +4.0135097E-01 </wgt>
<wgt id='1296'> +3.9082222E-01 </wgt>
<wgt id='1297'> +3.9176877E-01 </wgt>
<wgt id='1298'> +3.9004449E-01 </wgt>
<wgt id='1299'> +3.8960362E-01 </wgt>
<wgt id='1300'> +3.9217226E-01 </wgt>
<wgt id='1301'> +3.8993555E-01 </wgt>
<wgt id='1302'> +3.9214103E-01 </wgt>
<wgt id='1303'> +3.9057197E-01 </wgt>
<wgt id='1304'> +3.9098666E-01 </wgt>
<wgt id='1305'> +3.9121110E-01 </wgt>
<wgt id='1306'> +3.9026919E-01 </wgt>
<wgt id='1307'> +3.9277419E-01 </wgt>
<wgt id='1308'> +3.8960026E-01 </wgt>
<wgt id='1309'> +3.9125385E-01 </wgt>
<wgt id='1310'> +3.9023639E-01 </wgt>
<wgt id='1311'> +3.9413076E-01 </wgt>
<wgt id='1312'> +3.8961573E-01 </wgt>
<wgt id='1313'> +3.9151715E-01 </wgt>
<wgt id='1314'> +3.8978551E-01 </wgt>
<wgt id='1315'> +3.9056572E-01 </wgt>
<wgt id='1316'> +3.9105356E-01 </wgt>
<wgt id='1317'> +3.8849149E-01 </wgt>
<wgt id='1318'> +3.9513132E-01 </wgt>
<wgt id='1319'> +3.9180926E-01 </wgt>
<wgt id='1320'> +3.9028687E-01 </wgt>
<wgt id='1321'> +3.8988991E-01 </wgt>
<wgt id='1322'> +3.9131707E-01 </wgt>
<wgt id='1323'> +3.9076188E-01 </wgt>
<wgt id='1324'> +3.9084325E-01 </wgt>
<wgt id='1325'> +3.9110986E-01 </wgt>
<wgt id='1326'> +3.9048178E-01 </wgt>
<wgt id='1327'> +3.9104162E-01 </wgt>
<wgt id='1328'> +3.9075086E-01 </wgt>
<wgt id='1329'> +3.9092187E-01 </wgt>
<wgt id='1330'> +3.9075406E-01 </wgt>
<wgt id='1331'> +3.9106212E-01 </wgt>
<wgt id='1332'> +3.9113654E-01 </wgt>
<wgt id='1333'> +3.9282351E-01 </wgt>
<wgt id='1334'> +3.8792178E-01 </wgt>
<wgt id='1335'> +3.9196425E-01 </wgt>
<wgt id='1336'> +3.9054447E-01 </wgt>
<wgt id='1337'> +3.9082222E-01 </wgt>
<wgt id='1338'> +3.9080304E-01 </wgt>
<wgt id='1339'> +3.9082486E-01 </wgt>
<wgt id='1340'> +3.9084103E-01 </wgt>
<wgt id='1341'> +3.9085186E-01 </wgt>
<wgt id='1342'> +3.9085477E-01 </wgt>
<wgt id='1343'> +3.9084387E-01 </wgt>
<wgt id='1344'> +3.8980104E-01 </wgt>
<wgt id='1345'> +3.9114290E-01 </wgt>
<wgt id='1346'> +3.8847298E-01 </wgt>
<wgt id='1347'> +3.9210266E-01 </wgt>
<wgt id='1348'> +3.8810612E-01 </wgt>
<wgt id='1349'> +3.8930055E-01 </wgt>
<wgt id='1350'> +3.9022310E-01 </wgt>
<wgt id='1351'> +3.8981590E-01 </wgt>
<wgt id='1352'> +3.8978896E-01 </wgt>
<wgt id='1353'> +3.9077109E-01 </wgt>
<wgt id='1354'> +3.8912437E-01 </wgt>
<wgt id='1355'> +3.8892231E-01 </wgt>
<wgt id='1356'> +3.9048657E-01 </wgt>
<wgt id='1357'> +3.9009226E-01 </wgt>
<wgt id='1358'> +3.8961476E-01 </wgt>
<wgt id='1359'> +3.8842637E-01 </wgt>
<wgt id='1360'> +3.9324505E-01 </wgt>
<wgt id='1361'> +3.9262635E-01 </wgt>
<wgt id='1362'> +3.8775728E-01 </wgt>
<wgt id='1363'> +3.9048574E-01 </wgt>
<wgt id='1364'> +3.8899987E-01 </wgt>
<wgt id='1365'> +3.8988630E-01 </wgt>
<wgt id='1366'> +3.8981332E-01 </wgt>
<wgt id='1367'> +3.8834710E-01 </wgt>
<wgt id='1368'> +3.9053960E-01 </wgt>
<wgt id='1369'> +3.8884997E-01 </wgt>
<wgt id='1370'> +3.9070117E-01 </wgt>
<wgt id='1371'> +3.8995864E-01 </wgt>
<wgt id='1372'> +3.8969973E-01 </wgt>
<wgt id='1373'> +3.9083193E-01 </wgt>
<wgt id='1374'> +3.8935333E-01 </wgt>
<wgt id='1375'> +3.9037764E-01 </wgt>
<wgt id='1376'> +3.8966103E-01 </wgt>
<wgt id='1377'> +3.8983808E-01 </wgt>
<wgt id='1378'> +3.8970762E-01 </wgt>
<wgt id='1379'> +3.9063473E-01 </wgt>
<wgt id='1380'> +3.8978081E-01 </wgt>
<wgt id='1381'> +3.8838650E-01 </wgt>
<wgt id='1382'> +3.8946386E-01 </wgt>
<wgt id='1383'> +3.8956606E-01 </wgt>
<wgt id='1384'> +3.9102316E-01 </wgt>
<wgt id='1385'> +3.8980104E-01 </wgt>
<wgt id='1386'> +3.8960407E-01 </wgt>
<wgt id='1387'> +3.8968781E-01 </wgt>
<wgt id='1388'> +3.8972663E-01 </wgt>
<wgt id='1389'> +3.8980896E-01 </wgt>
<wgt id='1390'> +3.8984815E-01 </wgt>
<wgt id='1391'> +3.8984851E-01 </wgt>
<wgt id='1392'> +4.0851197E-01 </wgt>
<wgt id='1393'> +4.0853122E-01 </wgt>
<wgt id='1394'> +4.0848137E-01 </wgt>
<wgt id='1395'> +4.0875618E-01 </wgt>
<wgt id='1396'> +4.0831267E-01 </wgt>
<wgt id='1397'> +4.0994892E-01 </wgt>
<wgt id='1398'> +4.0711695E-01 </wgt>
<wgt id='1399'> +4.0994919E-01 </wgt>
<wgt id='1400'> +4.0673027E-01 </wgt>
<wgt id='1401'> +4.0711762E-01 </wgt>
<wgt id='1402'> +4.1021087E-01 </wgt>
<wgt id='1403'> +4.0824325E-01 </wgt>
<wgt id='1404'> +4.0902113E-01 </wgt>
<wgt id='1405'> +4.0797971E-01 </wgt>
<wgt id='1406'> +4.0922466E-01 </wgt>
<wgt id='1407'> +4.0799799E-01 </wgt>
<wgt id='1408'> +4.0884805E-01 </wgt>
<wgt id='1409'> +4.1016970E-01 </wgt>
<wgt id='1410'> +4.0660112E-01 </wgt>
<wgt id='1411'> +4.0820117E-01 </wgt>
<wgt id='1412'> +4.0873062E-01 </wgt>
<wgt id='1413'> +4.1014766E-01 </wgt>
<wgt id='1414'> +4.0677404E-01 </wgt>
<wgt id='1415'> +4.1005817E-01 </wgt>
<wgt id='1416'> +4.0682763E-01 </wgt>
<wgt id='1417'> +4.0823818E-01 </wgt>
<wgt id='1418'> +4.0881150E-01 </wgt>
<wgt id='1419'> +4.0874769E-01 </wgt>
<wgt id='1420'> +4.0832834E-01 </wgt>
<wgt id='1421'> +4.1027850E-01 </wgt>
<wgt id='1422'> +4.0651510E-01 </wgt>
<wgt id='1423'> +4.0934028E-01 </wgt>
<wgt id='1424'> +4.0759735E-01 </wgt>
<wgt id='1425'> +4.0858312E-01 </wgt>
<wgt id='1426'> +4.0838047E-01 </wgt>
<wgt id='1427'> +4.0777800E-01 </wgt>
<wgt id='1428'> +4.0791035E-01 </wgt>
<wgt id='1429'> +4.0812706E-01 </wgt>
<wgt id='1430'> +4.0886882E-01 </wgt>
<wgt id='1431'> +4.0824642E-01 </wgt>
<wgt id='1432'> +4.0860930E-01 </wgt>
<wgt id='1433'> +4.0677582E-01 </wgt>
<wgt id='1434'> +4.1010452E-01 </wgt>
<wgt id='1435'> +4.0815246E-01 </wgt>
<wgt id='1436'> +4.0897030E-01 </wgt>
<wgt id='1437'> +4.0811187E-01 </wgt>
<wgt id='1438'> +4.0940397E-01 </wgt>
<wgt id='1439'> +4.1016578E-01 </wgt>
<wgt id='1440'> +4.0514287E-01 </wgt>
<wgt id='1441'> +4.0916995E-01 </wgt>
<wgt id='1442'> +4.0907029E-01 </wgt>
<wgt id='1443'> +4.0534791E-01 </wgt>
<wgt id='1444'> +4.0538995E-01 </wgt>
<wgt id='1445'> +4.0530465E-01 </wgt>
<wgt id='1446'> +4.0561403E-01 </wgt>
<wgt id='1447'> +4.0515937E-01 </wgt>
<wgt id='1448'> +4.0686843E-01 </wgt>
<wgt id='1449'> +4.0392946E-01 </wgt>
<wgt id='1450'> +4.0671588E-01 </wgt>
<wgt id='1451'> +4.0381275E-01 </wgt>
<wgt id='1452'> +4.0398754E-01 </wgt>
<wgt id='1453'> +4.0665498E-01 </wgt>
<wgt id='1454'> +4.0499368E-01 </wgt>
<wgt id='1455'> +4.0608812E-01 </wgt>
<wgt id='1456'> +4.0471127E-01 </wgt>
<wgt id='1457'> +4.0646350E-01 </wgt>
<wgt id='1458'> +4.0491742E-01 </wgt>
<wgt id='1459'> +4.0558465E-01 </wgt>
<wgt id='1460'> +4.0695623E-01 </wgt>
<wgt id='1461'> +4.0340543E-01 </wgt>
<wgt id='1462'> +4.0469681E-01 </wgt>
<wgt id='1463'> +4.0589161E-01 </wgt>
<wgt id='1464'> +4.0681617E-01 </wgt>
<wgt id='1465'> +4.0341039E-01 </wgt>
<wgt id='1466'> +4.0733011E-01 </wgt>
<wgt id='1467'> +4.0387842E-01 </wgt>
<wgt id='1468'> +4.0502398E-01 </wgt>
<wgt id='1469'> +4.0568988E-01 </wgt>
<wgt id='1470'> +4.0565666E-01 </wgt>
<wgt id='1471'> +4.0516214E-01 </wgt>
<wgt id='1472'> +4.0681498E-01 </wgt>
<wgt id='1473'> +4.0363363E-01 </wgt>
<wgt id='1474'> +4.0597959E-01 </wgt>
<wgt id='1475'> +4.0433482E-01 </wgt>
<wgt id='1476'> +4.0534206E-01 </wgt>
<wgt id='1477'> +4.0526709E-01 </wgt>
<wgt id='1478'> +4.0469697E-01 </wgt>
<wgt id='1479'> +4.0479960E-01 </wgt>
<wgt id='1480'> +4.0515587E-01 </wgt>
<wgt id='1481'> +4.0558026E-01 </wgt>
<wgt id='1482'> +4.0507029E-01 </wgt>
<wgt id='1483'> +4.0549665E-01 </wgt>
<wgt id='1484'> +4.0359631E-01 </wgt>
<wgt id='1485'> +4.0701797E-01 </wgt>
<wgt id='1486'> +4.0511582E-01 </wgt>
<wgt id='1487'> +4.0567478E-01 </wgt>
<wgt id='1488'> +4.0490380E-01 </wgt>
<wgt id='1489'> +4.0631835E-01 </wgt>
<wgt id='1490'> +4.0772319E-01 </wgt>
<wgt id='1491'> +4.0174177E-01 </wgt>
<wgt id='1492'> +4.0647165E-01 </wgt>
<wgt id='1493'> +4.0590198E-01 </wgt>
<wgt id='1494'> +3.8983081E-01 </wgt>
<wgt id='1495'> +3.8572488E-01 </wgt>
<wgt id='1496'> +3.8715460E-01 </wgt>
<wgt id='1497'> +3.8855946E-01 </wgt>
<wgt id='1498'> +3.9084890E-01 </wgt>
<wgt id='1499'> +3.8973859E-01 </wgt>
<wgt id='1500'> +3.9279497E-01 </wgt>
<wgt id='1501'> +3.9219856E-01 </wgt>
<wgt id='1502'> +3.9160114E-01 </wgt>
<wgt id='1503'> +3.9098376E-01 </wgt>
<wgt id='1504'> +3.9037671E-01 </wgt>
<wgt id='1505'> +3.8915927E-01 </wgt>
<wgt id='1506'> +3.8854522E-01 </wgt>
<wgt id='1507'> +3.8795253E-01 </wgt>
<wgt id='1508'> +3.8973859E-01 </wgt>
<wgt id='1509'> +3.8993322E-01 </wgt>
<wgt id='1510'> +3.8981634E-01 </wgt>
<wgt id='1511'> +3.8966388E-01 </wgt>
<wgt id='1512'> +3.8957503E-01 </wgt>
<wgt id='1513'> +3.9119843E-01 </wgt>
<wgt id='1514'> +3.9103941E-01 </wgt>
<wgt id='1515'> +3.9138599E-01 </wgt>
<wgt id='1516'> +3.9184752E-01 </wgt>
<wgt id='1517'> +3.9053577E-01 </wgt>
<wgt id='1518'> +3.9190334E-01 </wgt>
<wgt id='1519'> +3.9090124E-01 </wgt>
<wgt id='1520'> +3.9331318E-01 </wgt>
<wgt id='1521'> +3.8907104E-01 </wgt>
<wgt id='1522'> +3.9047823E-01 </wgt>
<wgt id='1523'> +3.9188030E-01 </wgt>
<wgt id='1524'> +3.9291869E-01 </wgt>
<wgt id='1525'> +3.9043979E-01 </wgt>
<wgt id='1526'> +3.9125760E-01 </wgt>
<wgt id='1527'> +3.9111472E-01 </wgt>
<wgt id='1528'> +3.9044988E-01 </wgt>
<wgt id='1529'> +3.9199233E-01 </wgt>
<wgt id='1530'> +3.9392182E-01 </wgt>
<wgt id='1531'> +3.8964790E-01 </wgt>
<wgt id='1532'> +3.9219702E-01 </wgt>
<wgt id='1533'> +3.8979274E-01 </wgt>
<wgt id='1534'> +3.8997255E-01 </wgt>
<wgt id='1535'> +3.9205272E-01 </wgt>
<wgt id='1536'> +3.8982734E-01 </wgt>
<wgt id='1537'> +3.9252934E-01 </wgt>
<wgt id='1538'> +3.9066165E-01 </wgt>
<wgt id='1539'> +3.9232679E-01 </wgt>
<wgt id='1540'> +3.9106324E-01 </wgt>
<wgt id='1541'> +3.9118704E-01 </wgt>
<wgt id='1542'> +3.9016155E-01 </wgt>
<wgt id='1543'> +3.9421059E-01 </wgt>
<wgt id='1544'> +3.9111422E-01 </wgt>
<wgt id='1545'> +3.9058073E-01 </wgt>
<wgt id='1546'> +3.9052349E-01 </wgt>
<wgt id='1547'> +3.9157355E-01 </wgt>
<wgt id='1548'> +3.9116701E-01 </wgt>
<wgt id='1549'> +3.9038736E-01 </wgt>
<wgt id='1550'> +3.9126748E-01 </wgt>
<wgt id='1551'> +3.9089916E-01 </wgt>
<wgt id='1552'> +3.9085085E-01 </wgt>
<wgt id='1553'> +3.9129670E-01 </wgt>
<wgt id='1554'> +3.9161696E-01 </wgt>
<wgt id='1555'> +3.8953221E-01 </wgt>
<wgt id='1556'> +3.9175841E-01 </wgt>
<wgt id='1557'> +3.9119866E-01 </wgt>
<wgt id='1558'> +3.8893575E-01 </wgt>
<wgt id='1559'> +3.9234910E-01 </wgt>
<wgt id='1560'> +3.9282621E-01 </wgt>
<wgt id='1561'> +3.9038874E-01 </wgt>
<wgt id='1562'> +3.8941180E-01 </wgt>
<wgt id='1563'> +3.9205340E-01 </wgt>
<wgt id='1564'> +3.9119843E-01 </wgt>
<wgt id='1565'> +3.8966730E-01 </wgt>
<wgt id='1566'> +3.9144868E-01 </wgt>
<wgt id='1567'> +3.9064173E-01 </wgt>
<wgt id='1568'> +3.9361904E-01 </wgt>
<wgt id='1569'> +3.9302504E-01 </wgt>
<wgt id='1570'> +3.9240472E-01 </wgt>
<wgt id='1571'> +3.9179930E-01 </wgt>
<wgt id='1572'> +3.9119480E-01 </wgt>
<wgt id='1573'> +3.9005462E-01 </wgt>
<wgt id='1574'> +3.8930719E-01 </wgt>
<wgt id='1575'> +3.8873934E-01 </wgt>
<wgt id='1576'> +3.9064173E-01 </wgt>
<wgt id='1577'> +3.9075350E-01 </wgt>
<wgt id='1578'> +3.9069227E-01 </wgt>
<wgt id='1579'> +3.9058368E-01 </wgt>
<wgt id='1580'> +3.9054969E-01 </wgt>
<wgt id='1581'> +3.9100619E-01 </wgt>
<wgt id='1582'> +3.9133151E-01 </wgt>
<wgt id='1583'> +3.9276721E-01 </wgt>
<wgt id='1584'> +3.8927269E-01 </wgt>
<wgt id='1585'> +3.9228741E-01 </wgt>
<wgt id='1586'> +3.8890160E-01 </wgt>
<wgt id='1587'> +3.8712690E-01 </wgt>
<wgt id='1588'> +3.9403221E-01 </wgt>
<wgt id='1589'> +3.9077908E-01 </wgt>
<wgt id='1590'> +3.9152137E-01 </wgt>
<wgt id='1591'> +3.9029811E-01 </wgt>
<wgt id='1592'> +3.9181918E-01 </wgt>
<wgt id='1593'> +3.9176138E-01 </wgt>
<wgt id='1594'> +3.9095241E-01 </wgt>
<wgt id='1595'> +3.9060686E-01 </wgt>
<wgt id='1596'> +3.9354352E-01 </wgt>
<wgt id='1597'> +3.9188067E-01 </wgt>
<wgt id='1598'> +3.9147424E-01 </wgt>
<wgt id='1599'> +3.9119230E-01 </wgt>
<wgt id='1600'> +3.9197808E-01 </wgt>
<wgt id='1601'> +3.9038320E-01 </wgt>
<wgt id='1602'> +3.9175051E-01 </wgt>
<wgt id='1603'> +3.9170482E-01 </wgt>
<wgt id='1604'> +3.9134347E-01 </wgt>
<wgt id='1605'> +3.9034793E-01 </wgt>
<wgt id='1606'> +3.9131340E-01 </wgt>
<wgt id='1607'> +3.9156115E-01 </wgt>
<wgt id='1608'> +3.9145092E-01 </wgt>
<wgt id='1609'> +3.9188373E-01 </wgt>
<wgt id='1610'> +3.9072795E-01 </wgt>
<wgt id='1611'> +3.9282125E-01 </wgt>
<wgt id='1612'> +3.9134527E-01 </wgt>
<wgt id='1613'> +3.9111044E-01 </wgt>
<wgt id='1614'> +3.9200505E-01 </wgt>
<wgt id='1615'> +3.9209919E-01 </wgt>
<wgt id='1616'> +3.9093436E-01 </wgt>
<wgt id='1617'> +3.9089221E-01 </wgt>
<wgt id='1618'> +3.9177707E-01 </wgt>
<wgt id='1619'> +3.8998845E-01 </wgt>
<wgt id='1620'> +3.9059536E-01 </wgt>
<wgt id='1621'> +3.9148503E-01 </wgt>
<wgt id='1622'> +3.9231694E-01 </wgt>
<wgt id='1623'> +3.9116015E-01 </wgt>
<wgt id='1624'> +3.9091745E-01 </wgt>
<wgt id='1625'> +3.9198219E-01 </wgt>
<wgt id='1626'> +3.9319396E-01 </wgt>
<wgt id='1627'> +3.9119697E-01 </wgt>
<wgt id='1628'> +3.9131955E-01 </wgt>
<wgt id='1629'> +3.9191802E-01 </wgt>
<wgt id='1630'> +3.9212811E-01 </wgt>
<wgt id='1631'> +3.9167669E-01 </wgt>
<wgt id='1632'> +3.9240410E-01 </wgt>
<wgt id='1633'> +3.9072574E-01 </wgt>
<wgt id='1634'> +3.9274784E-01 </wgt>
<wgt id='1635'> +3.9082715E-01 </wgt>
<wgt id='1636'> +3.9128202E-01 </wgt>
<wgt id='1637'> +3.9272299E-01 </wgt>
<wgt id='1638'> +3.9125981E-01 </wgt>
<wgt id='1639'> +3.9227937E-01 </wgt>
<wgt id='1640'> +3.9175784E-01 </wgt>
<wgt id='1641'> +3.8758137E-01 </wgt>
<wgt id='1642'> +3.9043200E-01 </wgt>
<wgt id='1643'> +3.9120525E-01 </wgt>
<wgt id='1644'> +3.9033584E-01 </wgt>
<wgt id='1645'> +3.9072918E-01 </wgt>
<wgt id='1646'> +3.9200118E-01 </wgt>
<wgt id='1647'> +3.9075635E-01 </wgt>
<wgt id='1648'> +3.9088897E-01 </wgt>
<wgt id='1649'> +3.9177055E-01 </wgt>
<wgt id='1650'> +3.9104789E-01 </wgt>
<wgt id='1651'> +3.9133538E-01 </wgt>
<wgt id='1652'> +3.9094552E-01 </wgt>
<wgt id='1653'> +3.9108361E-01 </wgt>
<wgt id='1654'> +3.9112904E-01 </wgt>
<wgt id='1655'> +3.9204358E-01 </wgt>
<wgt id='1656'> +3.9123919E-01 </wgt>
<wgt id='1657'> +3.9119713E-01 </wgt>
<wgt id='1658'> +3.9168237E-01 </wgt>
<wgt id='1659'> +3.9185736E-01 </wgt>
<wgt id='1660'> +3.9179114E-01 </wgt>
<wgt id='1661'> +3.9168816E-01 </wgt>
<wgt id='1662'> +3.9182604E-01 </wgt>
<wgt id='1663'> +3.9221330E-01 </wgt>
<wgt id='1664'> +3.9160108E-01 </wgt>
<wgt id='1665'> +3.9168043E-01 </wgt>
<wgt id='1666'> +3.9190540E-01 </wgt>
<wgt id='1667'> +3.9136752E-01 </wgt>
<wgt id='1668'> +3.9092138E-01 </wgt>
<wgt id='1669'> +3.9107892E-01 </wgt>
<wgt id='1670'> +3.9077597E-01 </wgt>
<wgt id='1671'> +3.9148548E-01 </wgt>
<wgt id='1672'> +3.9138926E-01 </wgt>
<wgt id='1673'> +3.9145015E-01 </wgt>
<wgt id='1674'> +3.9132373E-01 </wgt>
<wgt id='1675'> +3.9116606E-01 </wgt>
<wgt id='1676'> +3.9054414E-01 </wgt>
<wgt id='1677'> +3.9141165E-01 </wgt>
<wgt id='1678'> +3.9166749E-01 </wgt>
<wgt id='1679'> +3.9188758E-01 </wgt>
<wgt id='1680'> +3.9211560E-01 </wgt>
<wgt id='1681'> +3.9127850E-01 </wgt>
<wgt id='1682'> +3.9131086E-01 </wgt>
<wgt id='1683'> +3.9116223E-01 </wgt>
<wgt id='1684'> +3.9132583E-01 </wgt>
<wgt id='1685'> +3.9075187E-01 </wgt>
<wgt id='1686'> +3.9135425E-01 </wgt>
<wgt id='1687'> +3.9113465E-01 </wgt>
<wgt id='1688'> +3.9122002E-01 </wgt>
<wgt id='1689'> +3.9176293E-01 </wgt>
<wgt id='1690'> +3.9139439E-01 </wgt>
<wgt id='1691'> +3.9186283E-01 </wgt>
<wgt id='1692'> +3.9118424E-01 </wgt>
<wgt id='1693'> +3.9174881E-01 </wgt>
<wgt id='1694'> +3.9180855E-01 </wgt>
<wgt id='1695'> +3.9151546E-01 </wgt>
<wgt id='1696'> +3.9124828E-01 </wgt>
<wgt id='1697'> +3.9137748E-01 </wgt>
<wgt id='1698'> +3.9124949E-01 </wgt>
<wgt id='1699'> +3.9127869E-01 </wgt>
<wgt id='1700'> +3.9149146E-01 </wgt>
<wgt id='1701'> +3.9126839E-01 </wgt>
<wgt id='1702'> +3.9122200E-01 </wgt>
<wgt id='1703'> +3.9145733E-01 </wgt>
<wgt id='1704'> +3.9151242E-01 </wgt>
<wgt id='1705'> +3.9128066E-01 </wgt>
<wgt id='1706'> +3.9120982E-01 </wgt>
<wgt id='1707'> +3.9128868E-01 </wgt>
<wgt id='1708'> +3.9103403E-01 </wgt>
<wgt id='1709'> +3.9133163E-01 </wgt>
<wgt id='1710'> +3.9116636E-01 </wgt>
<wgt id='1711'> +3.9132609E-01 </wgt>
<wgt id='1712'> +3.9107733E-01 </wgt>
<wgt id='1713'> +3.8556549E-01 </wgt>
<wgt id='1714'> +3.9603781E-01 </wgt>
<wgt id='1715'> +3.8727521E-01 </wgt>
<wgt id='1716'> +3.8344195E-01 </wgt>
<wgt id='1717'> +3.8568694E-01 </wgt>
<wgt id='1718'> +3.8186195E-01 </wgt>
<wgt id='1719'> +3.8228108E-01 </wgt>
<wgt id='1720'> +3.9775526E-01 </wgt>
<wgt id='1721'> +3.7680081E-01 </wgt>
<wgt id='1722'> +3.8418895E-01 </wgt>
<wgt id='1723'> +3.8748746E-01 </wgt>
<wgt id='1724'> +3.9410550E-01 </wgt>
<wgt id='1725'> +3.9442524E-01 </wgt>
<wgt id='1726'> +3.9490859E-01 </wgt>
<wgt id='1727'> +3.8749885E-01 </wgt>
<wgt id='1728'> +3.8788336E-01 </wgt>
<wgt id='1729'> +3.8756008E-01 </wgt>
<wgt id='1730'> +3.8187890E-01 </wgt>
<wgt id='1731'> +3.6315805E-01 </wgt>
<wgt id='1732'> +4.0082783E-01 </wgt>
<wgt id='1733'> +3.9227448E-01 </wgt>
<wgt id='1734'> +3.8765105E-01 </wgt>
<wgt id='1735'> +3.7894779E-01 </wgt>
<wgt id='1736'> +3.8596950E-01 </wgt>
<wgt id='1737'> +3.8905536E-01 </wgt>
<wgt id='1738'> +3.9256387E-01 </wgt>
<wgt id='1739'> +3.8212066E-01 </wgt>
<wgt id='1740'> +3.8453903E-01 </wgt>
<wgt id='1741'> +3.8605920E-01 </wgt>
<wgt id='1742'> +3.9852534E-01 </wgt>
<wgt id='1743'> +3.7868203E-01 </wgt>
<wgt id='1744'> +3.9301115E-01 </wgt>
<wgt id='1745'> +3.7501827E-01 </wgt>
<wgt id='1746'> +3.8707667E-01 </wgt>
<wgt id='1747'> +3.8836632E-01 </wgt>
<wgt id='1748'> +3.8507090E-01 </wgt>
<wgt id='1749'> +3.9960191E-01 </wgt>
<wgt id='1750'> +3.8830696E-01 </wgt>
<wgt id='1751'> +3.8853184E-01 </wgt>
<wgt id='1752'> +3.7090712E-01 </wgt>
<wgt id='1753'> +3.8466171E-01 </wgt>
<wgt id='1754'> +3.9105793E-01 </wgt>
<wgt id='1755'> +3.9193611E-01 </wgt>
<wgt id='1756'> +3.7898341E-01 </wgt>
<wgt id='1757'> +3.8130069E-01 </wgt>
<wgt id='1758'> +3.8207697E-01 </wgt>
<wgt id='1759'> +3.8434148E-01 </wgt>
<wgt id='1760'> +3.8234832E-01 </wgt>
<wgt id='1761'> +3.8832530E-01 </wgt>
<wgt id='1762'> +3.8749885E-01 </wgt>
<wgt id='1763'> +3.8539095E-01 </wgt>
<wgt id='1764'> +3.9158217E-01 </wgt>
<wgt id='1765'> +3.9100708E-01 </wgt>
<wgt id='1766'> +4.0285067E-01 </wgt>
<wgt id='1767'> +3.8429930E-01 </wgt>
<wgt id='1768'> +3.7464072E-01 </wgt>
<wgt id='1769'> +3.8915831E-01 </wgt>
<wgt id='1770'> +3.9649097E-01 </wgt>
<wgt id='1771'> +3.8351935E-01 </wgt>
<wgt id='1772'> +3.8785300E-01 </wgt>
<wgt id='1773'> +3.9216118E-01 </wgt>
<wgt id='1774'> +3.7889268E-01 </wgt>
<wgt id='1775'> +3.8738008E-01 </wgt>
<wgt id='1776'> +3.9112258E-01 </wgt>
<wgt id='1777'> +3.8875167E-01 </wgt>
<wgt id='1778'> +3.8941858E-01 </wgt>
<wgt id='1779'> +3.8505807E-01 </wgt>
<wgt id='1780'> +3.9571695E-01 </wgt>
<wgt id='1781'> +3.9088634E-01 </wgt>
<wgt id='1782'> +3.9724052E-01 </wgt>
<wgt id='1783'> +3.8342636E-01 </wgt>
<wgt id='1784'> +3.9482062E-01 </wgt>
<wgt id='1785'> +3.9446937E-01 </wgt>
<wgt id='1786'> +3.9295091E-01 </wgt>
<wgt id='1787'> +3.8877281E-01 </wgt>
<wgt id='1788'> +3.8257399E-01 </wgt>
<wgt id='1789'> +3.9234511E-01 </wgt>
<wgt id='1790'> +3.9314383E-01 </wgt>
<wgt id='1791'> +3.7275388E-01 </wgt>
<wgt id='1792'> +3.8987301E-01 </wgt>
<wgt id='1793'> +4.0015503E-01 </wgt>
<wgt id='1794'> +3.8403257E-01 </wgt>
<wgt id='1795'> +3.7504711E-01 </wgt>
<wgt id='1796'> +3.8951374E-01 </wgt>
<wgt id='1797'> +3.8280202E-01 </wgt>
<wgt id='1798'> +3.9077935E-01 </wgt>
<wgt id='1799'> +3.9424300E-01 </wgt>
<wgt id='1800'> +3.9119110E-01 </wgt>
<wgt id='1801'> +3.7914579E-01 </wgt>
<wgt id='1802'> +3.8433264E-01 </wgt>
<wgt id='1803'> +3.8747087E-01 </wgt>
<wgt id='1804'> +3.9336958E-01 </wgt>
<wgt id='1805'> +3.8699129E-01 </wgt>
<wgt id='1806'> +3.8607012E-01 </wgt>
<wgt id='1807'> +3.7856239E-01 </wgt>
<wgt id='1808'> +3.8862259E-01 </wgt>
<wgt id='1809'> +3.8457439E-01 </wgt>
<wgt id='1810'> +3.8517691E-01 </wgt>
<wgt id='1811'> +3.8617613E-01 </wgt>
<wgt id='1812'> +3.8542492E-01 </wgt>
<wgt id='1813'> +3.9011577E-01 </wgt>
<wgt id='1814'> +3.8461803E-01 </wgt>
<wgt id='1815'> +3.9361589E-01 </wgt>
<wgt id='1816'> +3.9749694E-01 </wgt>
<wgt id='1817'> +4.0348269E-01 </wgt>
<wgt id='1818'> +3.9346131E-01 </wgt>
<wgt id='1819'> +4.0247399E-01 </wgt>
<wgt id='1820'> +4.0591817E-01 </wgt>
<wgt id='1821'> +4.0695651E-01 </wgt>
<wgt id='1822'> +4.0141178E-01 </wgt>
<wgt id='1823'> +3.9847290E-01 </wgt>
<wgt id='1824'> +3.9467594E-01 </wgt>
<wgt id='1825'> +3.9594468E-01 </wgt>
<wgt id='1826'> +3.8816787E-01 </wgt>
<wgt id='1827'> +3.9050711E-01 </wgt>
<wgt id='1828'> +4.0208792E-01 </wgt>
<wgt id='1829'> +4.0205936E-01 </wgt>
<wgt id='1830'> +3.9072224E-01 </wgt>
<wgt id='1831'> +4.0214511E-01 </wgt>
<wgt id='1832'> +3.9413028E-01 </wgt>
<wgt id='1833'> +3.9062970E-01 </wgt>
<wgt id='1834'> +3.8975174E-01 </wgt>
<wgt id='1835'> +4.0190124E-01 </wgt>
<wgt id='1836'> +4.0421989E-01 </wgt>
<wgt id='1837'> +4.0109351E-01 </wgt>
<wgt id='1838'> +3.9093441E-01 </wgt>
<wgt id='1839'> +4.1727509E-01 </wgt>
<wgt id='1840'> +3.9905087E-01 </wgt>
<wgt id='1841'> +3.9821000E-01 </wgt>
<wgt id='1842'> +4.0086728E-01 </wgt>
<wgt id='1843'> +3.8634300E-01 </wgt>
<wgt id='1844'> +3.9929689E-01 </wgt>
<wgt id='1845'> +3.9730451E-01 </wgt>
<wgt id='1846'> +4.0108721E-01 </wgt>
<wgt id='1847'> +3.9608862E-01 </wgt>
<wgt id='1848'> +3.9657758E-01 </wgt>
<wgt id='1849'> +3.9778865E-01 </wgt>
<wgt id='1850'> +4.0052143E-01 </wgt>
<wgt id='1851'> +3.9649338E-01 </wgt>
<wgt id='1852'> +3.9884736E-01 </wgt>
<wgt id='1853'> +3.9081836E-01 </wgt>
<wgt id='1854'> +4.0134966E-01 </wgt>
<wgt id='1855'> +3.9876937E-01 </wgt>
<wgt id='1856'> +4.0082504E-01 </wgt>
<wgt id='1857'> +4.0730071E-01 </wgt>
<wgt id='1858'> +3.9520108E-01 </wgt>
<wgt id='1859'> +3.9891574E-01 </wgt>
<wgt id='1860'> +3.9658423E-01 </wgt>
<wgt id='1861'> +3.9249763E-01 </wgt>
<wgt id='1862'> +4.0128415E-01 </wgt>
<wgt id='1863'> +3.9166249E-01 </wgt>
<wgt id='1864'> +3.9491148E-01 </wgt>
<wgt id='1865'> +3.9834318E-01 </wgt>
<wgt id='1866'> +3.9829940E-01 </wgt>
<wgt id='1867'> +3.9932634E-01 </wgt>
<wgt id='1868'> +3.9277050E-01 </wgt>
<wgt id='1869'> +4.0580633E-01 </wgt>
<wgt id='1870'> +3.9766566E-01 </wgt>
<wgt id='1871'> +3.9544757E-01 </wgt>
<wgt id='1872'> +3.8793888E-01 </wgt>
<wgt id='1873'> +4.0457309E-01 </wgt>
<wgt id='1874'> +3.9784613E-01 </wgt>
<wgt id='1875'> +3.9324858E-01 </wgt>
<wgt id='1876'> +3.9678946E-01 </wgt>
<wgt id='1877'> +3.9913131E-01 </wgt>
<wgt id='1878'> +3.9514046E-01 </wgt>
<wgt id='1879'> +4.0690128E-01 </wgt>
<wgt id='1880'> +3.7899553E-01 </wgt>
<wgt id='1881'> +4.0001224E-01 </wgt>
<wgt id='1882'> +3.9252210E-01 </wgt>
<wgt id='1883'> +4.1595084E-01 </wgt>
<wgt id='1884'> +3.9297916E-01 </wgt>
<wgt id='1885'> +3.8840179E-01 </wgt>
<wgt id='1886'> +3.8812310E-01 </wgt>
<wgt id='1887'> +3.9996159E-01 </wgt>
<wgt id='1888'> +4.0172851E-01 </wgt>
<wgt id='1889'> +3.9273236E-01 </wgt>
<wgt id='1890'> +4.0502378E-01 </wgt>
<wgt id='1891'> +3.9945263E-01 </wgt>
<wgt id='1892'> +3.9976751E-01 </wgt>
<wgt id='1893'> +3.9580470E-01 </wgt>
<wgt id='1894'> +4.0296519E-01 </wgt>
<wgt id='1895'> +4.0269860E-01 </wgt>
<wgt id='1896'> +3.9273987E-01 </wgt>
<wgt id='1897'> +3.9975723E-01 </wgt>
<wgt id='1898'> +3.9921489E-01 </wgt>
<wgt id='1899'> +3.9563599E-01 </wgt>
<wgt id='1900'> +3.9756584E-01 </wgt>
<wgt id='1901'> +3.8931780E-01 </wgt>
<wgt id='1902'> +3.8933754E-01 </wgt>
<wgt id='1903'> +3.9421923E-01 </wgt>
<wgt id='1904'> +4.0086109E-01 </wgt>
<wgt id='1905'> +3.9815858E-01 </wgt>
<wgt id='1906'> +3.9163872E-01 </wgt>
<wgt id='1907'> +3.9703656E-01 </wgt>
<wgt id='1908'> +4.0107369E-01 </wgt>
<wgt id='1909'> +3.9417793E-01 </wgt>
<wgt id='1910'> +4.0115550E-01 </wgt>
<wgt id='1911'> +3.8072310E-01 </wgt>
<wgt id='1912'> +3.9887642E-01 </wgt>
<wgt id='1913'> +3.9701165E-01 </wgt>
<wgt id='1914'> +4.0711595E-01 </wgt>
<wgt id='1915'> +4.0480391E-01 </wgt>
<wgt id='1916'> +3.8486207E-01 </wgt>
<wgt id='1917'> +4.0202430E-01 </wgt>
<wgt id='1918'> +4.2122084E-01 </wgt>
<wgt id='1919'> +3.9749694E-01 </wgt>
<wgt id='1920'> +4.0348269E-01 </wgt>
<wgt id='1921'> +3.9346131E-01 </wgt>
<wgt id='1922'> +4.0247399E-01 </wgt>
<wgt id='1923'> +4.0591817E-01 </wgt>
<wgt id='1924'> +4.0695651E-01 </wgt>
<wgt id='1925'> +4.0141178E-01 </wgt>
<wgt id='1926'> +3.9847290E-01 </wgt>
<wgt id='1927'> +3.9467594E-01 </wgt>
<wgt id='1928'> +3.9594468E-01 </wgt>
<wgt id='1929'> +3.8816787E-01 </wgt>
<wgt id='1930'> +3.9050711E-01 </wgt>
<wgt id='1931'> +4.0208792E-01 </wgt>
<wgt id='1932'> +4.0205936E-01 </wgt>
<wgt id='1933'> +3.9072224E-01 </wgt>
<wgt id='1934'> +4.0214511E-01 </wgt>
<wgt id='1935'> +3.9413028E-01 </wgt>
<wgt id='1936'> +3.9062970E-01 </wgt>
<wgt id='1937'> +3.8975174E-01 </wgt>
<wgt id='1938'> +4.0190124E-01 </wgt>
<wgt id='1939'> +4.0421989E-01 </wgt>
<wgt id='1940'> +4.0109351E-01 </wgt>
<wgt id='1941'> +3.9093441E-01 </wgt>
<wgt id='1942'> +4.1727509E-01 </wgt>
<wgt id='1943'> +3.9905087E-01 </wgt>
<wgt id='1944'> +3.9821000E-01 </wgt>
<wgt id='1945'> +4.0086728E-01 </wgt>
<wgt id='1946'> +3.8634300E-01 </wgt>
<wgt id='1947'> +3.9929689E-01 </wgt>
<wgt id='1948'> +3.9730451E-01 </wgt>
<wgt id='1949'> +4.0108721E-01 </wgt>
<wgt id='1950'> +3.9608862E-01 </wgt>
<wgt id='1951'> +3.9657758E-01 </wgt>
<wgt id='1952'> +3.9778865E-01 </wgt>
<wgt id='1953'> +4.0052143E-01 </wgt>
<wgt id='1954'> +3.9649338E-01 </wgt>
<wgt id='1955'> +3.9884736E-01 </wgt>
<wgt id='1956'> +3.9081836E-01 </wgt>
<wgt id='1957'> +4.0134966E-01 </wgt>
<wgt id='1958'> +3.9876937E-01 </wgt>
<wgt id='1959'> +4.0082504E-01 </wgt>
<wgt id='1960'> +4.0730071E-01 </wgt>
<wgt id='1961'> +3.9520108E-01 </wgt>
<wgt id='1962'> +3.9891574E-01 </wgt>
<wgt id='1963'> +3.9658423E-01 </wgt>
<wgt id='1964'> +3.9249763E-01 </wgt>
<wgt id='1965'> +4.0128415E-01 </wgt>
<wgt id='1966'> +3.9166249E-01 </wgt>
<wgt id='1967'> +3.9491148E-01 </wgt>
<wgt id='1968'> +3.9834318E-01 </wgt>
<wgt id='1969'> +3.9829940E-01 </wgt>
<wgt id='1970'> +3.9932634E-01 </wgt>
<wgt id='1971'> +3.9277050E-01 </wgt>
<wgt id='1972'> +4.0580633E-01 </wgt>
<wgt id='1973'> +3.9766566E-01 </wgt>
<wgt id='1974'> +3.9544757E-01 </wgt>
<wgt id='1975'> +3.8793888E-01 </wgt>
<wgt id='1976'> +4.0457309E-01 </wgt>
<wgt id='1977'> +3.9784613E-01 </wgt>
<wgt id='1978'> +3.9324858E-01 </wgt>
<wgt id='1979'> +3.9678946E-01 </wgt>
<wgt id='1980'> +3.9913131E-01 </wgt>
<wgt id='1981'> +3.9514046E-01 </wgt>
<wgt id='1982'> +4.0690128E-01 </wgt>
<wgt id='1983'> +3.7899553E-01 </wgt>
<wgt id='1984'> +4.0001224E-01 </wgt>
<wgt id='1985'> +3.9252210E-01 </wgt>
<wgt id='1986'> +4.1595084E-01 </wgt>
<wgt id='1987'> +3.9297916E-01 </wgt>
<wgt id='1988'> +3.8840179E-01 </wgt>
<wgt id='1989'> +3.8812310E-01 </wgt>
<wgt id='1990'> +3.9996159E-01 </wgt>
<wgt id='1991'> +4.0172851E-01 </wgt>
<wgt id='1992'> +3.9273236E-01 </wgt>
<wgt id='1993'> +4.0502378E-01 </wgt>
<wgt id='1994'> +3.9945263E-01 </wgt>
<wgt id='1995'> +3.9976751E-01 </wgt>
<wgt id='1996'> +3.9580470E-01 </wgt>
<wgt id='1997'> +4.0296519E-01 </wgt>
<wgt id='1998'> +4.0269860E-01 </wgt>
<wgt id='1999'> +3.9273987E-01 </wgt>
<wgt id='2000'> +3.9975723E-01 </wgt>
<wgt id='2001'> +3.9921489E-01 </wgt>
<wgt id='2002'> +3.9563599E-01 </wgt>
<wgt id='2003'> +3.9756584E-01 </wgt>
<wgt id='2004'> +3.8931780E-01 </wgt>
<wgt id='2005'> +3.8933754E-01 </wgt>
<wgt id='2006'> +3.9421923E-01 </wgt>
<wgt id='2007'> +4.0086109E-01 </wgt>
<wgt id='2008'> +3.9815858E-01 </wgt>
<wgt id='2009'> +3.9163872E-01 </wgt>
<wgt id='2010'> +3.9703656E-01 </wgt>
<wgt id='2011'> +4.0107369E-01 </wgt>
<wgt id='2012'> +3.9417793E-01 </wgt>
<wgt id='2013'> +4.0115550E-01 </wgt>
<wgt id='2014'> +3.8072310E-01 </wgt>
<wgt id='2015'> +3.9887642E-01 </wgt>
<wgt id='2016'> +3.9701165E-01 </wgt>
<wgt id='2017'> +4.0711595E-01 </wgt>
<wgt id='2018'> +4.0480391E-01 </wgt>
<wgt id='2019'> +3.8486207E-01 </wgt>
<wgt id='2020'> +3.9649724E-01 </wgt>
<wgt id='2021'> +3.9821202E-01 </wgt>
<wgt id='2022'> +3.9776487E-01 </wgt>
</rwgt>
</event>
<event>
13      1 +3.9556008E-01 4.18377700e+02 7.81860800e-03 9.51496400e-02
       21 -1    0    0  502  503 +0.0000000000e+00 +0.0000000000e+00 +5.4440240656e+02 5.4440240656e+02 0.0000000000e+00 0.0000e+00 -1.0000e+00
        2 -1    0    0  501    0 +0.0000000000e+00 +0.0000000000e+00 -1.3276537280e+03 1.3276537280e+03 2.5500000000e-03 0.0000e+00 -1.0000e+00
  8000001  2    1    2  502    0 +1.6855882496e+02 +3.1178080004e+02 +4.1823422106e+01 6.9811629568e+02 5.9999818242e+02 0.0000e+00 0.0000e+00
        1  1    1    2  501    0 -1.9672381288e+02 -5.9594408648e+01 -8.8880423359e+02 9.1226351334e+02 5.0400000000e-03 0.0000e+00 -1.0000e+00
       -5  1    1    2    0  503 +2.8164987919e+01 -2.5218639139e+02 +6.3729490049e+01 2.6167632554e+02 4.6700000000e+00 0.0000e+00 1.0000e+00
        6  2    3    3  502    0 -6.1443239446e+01 +3.3183595972e+02 +1.7224062842e+02 4.1697671340e+02 1.7410447898e+02 0.0000e+00 0.0000e+00
        5  1    6    6  502    0 +3.9475125785e+01 +1.5448549027e+02 +7.4156839966e+01 1.7591218853e+02 4.6700000000e+00 0.0000e+00 -1.0000e+00
       24  2    6    6    0    0 -1.0091836523e+02 +1.7735046945e+02 +9.8083788455e+01 2.4106452487e+02 8.2788707788e+01 0.0000e+00 0.0000e+00
       12  1    8    8    0    0 +6.4181524403e+00 +2.0432186833e+01 -8.5784591040e+00 2.3070693533e+01 0.0000000000e+00 0.0000e+00 -1.0000e+00
      -11  1    8    8    0    0 -1.0733651767e+02 +1.5691828262e+02 +1.0666224756e+02 2.1799383133e+02 5.1100000000e-04 0.0000e+00 1.0000e+00
       23  2    3    3    0    0 +2.3000206440e+02 -2.0055159683e+01 -1.3041720631e+02 2.8113958228e+02 9.3421935110e+01 0.0000e+00 0.0000e+00
       13  1   11   11    0    0 +1.0972106252e+02 -2.1085519363e+01 -1.2042420210e+01 1.1237589482e+02 1.0566000000e-01 0.0000e+00 1.0000e+00
      -13  1   11   11    0    0 +1.2028100188e+02 +1.0303596804e+00 -1.1837478610e+02 1.6876368746e+02 1.0566000000e-01 0.0000e+00 -1.0000e+00
<mgrwt>
<rscale>  1 0.29325502e+03</rscale>
<asrwt>0</asrwt>
<pdfrwt beam="1">  1       21 0.83754217e-01 0.41837773e+03</pdfrwt>
<pdfrwt beam="2">  1        2 0.20425442e+00 0.20555231e+03</pdfrwt>
<totfact> 0.28653915e+02</totfact>
</mgrwt>
<rwgt>
<wgt id='1001'> +3.9556008E-01 </wgt>
<wgt id='1002'> +2.8718089E-01 </wgt>
<wgt id='1003'> +2.8717995E-01 </wgt>
<wgt id='1004'> +3.4026603E-01 </wgt>
<wgt id='1005'> +2.5765933E-01 </wgt>
<wgt id='1006'> +3.6235849E-01 </wgt>
<wgt id='1007'> +2.6645191E-01 </wgt>
<wgt id='1008'> +2.6645106E-01 </wgt>
<wgt id='1009'> +3.1370593E-01 </wgt>
<wgt id='1010'> +2.3996269E-01 </wgt>
<wgt id='1011'> +4.3566328E-01 </wgt>
<wgt id='1012'> +3.1149527E-01 </wgt>
<wgt id='1013'> +3.1149421E-01 </wgt>
<wgt id='1014'> +3.7187476E-01 </wgt>
<wgt id='1015'> +2.7824029E-01 </wgt>
<wgt id='1016'> +3.6031284E-01 </wgt>
<wgt id='1017'> +2.6422452E-01 </wgt>
<wgt id='1018'> +2.6422367E-01 </wgt>
<wgt id='1019'> +3.1149421E-01 </wgt>
<wgt id='1020'> +2.3778995E-01 </wgt>
<wgt id='1021'> +3.3006974E-01 </wgt>
<wgt id='1022'> +2.4515255E-01 </wgt>
<wgt id='1023'> +2.4515180E-01 </wgt>
<wgt id='1024'> +2.8717995E-01 </wgt>
<wgt id='1025'> +2.2145798E-01 </wgt>
<wgt id='1026'> +3.9684256E-01 </wgt>
<wgt id='1027'> +2.8659529E-01 </wgt>
<wgt id='1028'> +2.8659433E-01 </wgt>
<wgt id='1029'> +3.4043021E-01 </wgt>
<wgt id='1030'> +2.5678381E-01 </wgt>
<wgt id='1031'> +4.3713415E-01 </wgt>
<wgt id='1032'> +3.1370700E-01 </wgt>
<wgt id='1033'> +3.1370593E-01 </wgt>
<wgt id='1034'> +3.7408962E-01 </wgt>
<wgt id='1035'> +2.8053109E-01 </wgt>
<wgt id='1036'> +4.0044301E-01 </wgt>
<wgt id='1037'> +2.9106335E-01 </wgt>
<wgt id='1038'> +2.9106239E-01 </wgt>
<wgt id='1039'> +3.4488936E-01 </wgt>
<wgt id='1040'> +2.6126357E-01 </wgt>
<wgt id='1041'> +4.8145227E-01 </wgt>
<wgt id='1042'> +3.4026724E-01 </wgt>
<wgt id='1043'> +3.4026603E-01 </wgt>
<wgt id='1044'> +4.0884037E-01 </wgt>
<wgt id='1045'> +3.0293898E-01 </wgt>
<wgt id='1046'> +3.9556008E-01 </wgt>
<wgt id='1047'> +3.9556008E-01 </wgt>
<wgt id='1048'> +3.9556008E-01 </wgt>
<wgt id='1049'> +3.9487542E-01 </wgt>
<wgt id='1050'> +3.9543965E-01 </wgt>
<wgt id='1051'> +3.9708473E-01 </wgt>
<wgt id='1052'> +3.9474613E-01 </wgt>
<wgt id='1053'> +3.9642567E-01 </wgt>
<wgt id='1054'> +3.9503788E-01 </wgt>
<wgt id='1055'> +3.9449042E-01 </wgt>
<wgt id='1056'> +3.9437757E-01 </wgt>
<wgt id='1057'> +3.9589334E-01 </wgt>
<wgt id='1058'> +3.9533976E-01 </wgt>
<wgt id='1059'> +3.9678292E-01 </wgt>
<wgt id='1060'> +3.9427820E-01 </wgt>
<wgt id='1061'> +3.9581848E-01 </wgt>
<wgt id='1062'> +3.9602350E-01 </wgt>
<wgt id='1063'> +3.9519188E-01 </wgt>
<wgt id='1064'> +3.9647769E-01 </wgt>
<wgt id='1065'> +3.9703028E-01 </wgt>
<wgt id='1066'> +3.9413742E-01 </wgt>
<wgt id='1067'> +3.9312584E-01 </wgt>
<wgt id='1068'> +3.9527101E-01 </wgt>
<wgt id='1069'> +3.9446062E-01 </wgt>
<wgt id='1070'> +3.9654101E-01 </wgt>
<wgt id='1071'> +3.9609171E-01 </wgt>
<wgt id='1072'> +3.9538524E-01 </wgt>
<wgt id='1073'> +3.9529907E-01 </wgt>
<wgt id='1074'> +3.9555057E-01 </wgt>
<wgt id='1075'> +3.9419249E-01 </wgt>
<wgt id='1076'> +3.9636754E-01 </wgt>
<wgt id='1077'> +3.9686722E-01 </wgt>
<wgt id='1078'> +3.9584366E-01 </wgt>
<wgt id='1079'> +3.9727416E-01 </wgt>
<wgt id='1080'> +3.9636214E-01 </wgt>
<wgt id='1081'> +3.9602171E-01 </wgt>
<wgt id='1082'> +3.9581263E-01 </wgt>
<wgt id='1083'> +3.9525830E-01 </wgt>
<wgt id='1084'> +3.9499056E-01 </wgt>
<wgt id='1085'> +3.9666659E-01 </wgt>
<wgt id='1086'> +3.9450218E-01 </wgt>
<wgt id='1087'> +3.9543591E-01 </wgt>
<wgt id='1088'> +3.9613042E-01 </wgt>
<wgt id='1089'> +3.9567191E-01 </wgt>
<wgt id='1090'> +3.9592712E-01 </wgt>
<wgt id='1091'> +3.9509240E-01 </wgt>
<wgt id='1092'> +3.9476850E-01 </wgt>
<wgt id='1093'> +3.9540388E-01 </wgt>
<wgt id='1094'> +3.9530628E-01 </wgt>
<wgt id='1095'> +3.9489264E-01 </wgt>
<wgt id='1096'> +3.9474563E-01 </wgt>
<wgt id='1097'> +3.9527315E-01 </wgt>
<wgt id='1098'> +3.9529618E-01 </wgt>
<wgt id='1099'> +3.9533866E-01 </wgt>
<wgt id='1100'> +3.9579507E-01 </wgt>
<wgt id='1101'> +3.9538546E-01 </wgt>
<wgt id='1102'> +3.9578083E-01 </wgt>
<wgt id='1103'> +3.9579939E-01 </wgt>
<wgt id='1104'> +3.9559119E-01 </wgt>
<wgt id='1105'> +3.9597323E-01 </wgt>
<wgt id='1106'> +3.9587080E-01 </wgt>
<wgt id='1107'> +3.9547142E-01 </wgt>
<wgt id='1108'> +3.9566926E-01 </wgt>
<wgt id='1109'> +3.9570374E-01 </wgt>
<wgt id='1110'> +3.9555542E-01 </wgt>
<wgt id='1111'> +3.9537789E-01 </wgt>
<wgt id='1112'> +3.9567856E-01 </wgt>
<wgt id='1113'> +3.9571856E-01 </wgt>
<wgt id='1114'> +3.9465282E-01 </wgt>
<wgt id='1115'> +3.9576167E-01 </wgt>
<wgt id='1116'> +3.9555078E-01 </wgt>
<wgt id='1117'> +3.9564862E-01 </wgt>
<wgt id='1118'> +3.9540738E-01 </wgt>
<wgt id='1119'> +3.9557094E-01 </wgt>
<wgt id='1120'> +3.9542505E-01 </wgt>
<wgt id='1121'> +3.9606623E-01 </wgt>
<wgt id='1122'> +3.9540904E-01 </wgt>
<wgt id='1123'> +3.9564956E-01 </wgt>
<wgt id='1124'> +3.9548934E-01 </wgt>
<wgt id='1125'> +3.9550971E-01 </wgt>
<wgt id='1126'> +3.9549267E-01 </wgt>
<wgt id='1127'> +3.9592125E-01 </wgt>
<wgt id='1128'> +3.9553991E-01 </wgt>
<wgt id='1129'> +3.9566450E-01 </wgt>
<wgt id='1130'> +3.9570436E-01 </wgt>
<wgt id='1131'> +3.9585721E-01 </wgt>
<wgt id='1132'> +3.9547273E-01 </wgt>
<wgt id='1133'> +3.9577775E-01 </wgt>
<wgt id='1134'> +3.9544052E-01 </wgt>
<wgt id='1135'> +3.9577039E-01 </wgt>
<wgt id='1136'> +3.9561756E-01 </wgt>
<wgt id='1137'> +3.9558022E-01 </wgt>
<wgt id='1138'> +3.9579033E-01 </wgt>
<wgt id='1139'> +3.9552675E-01 </wgt>
<wgt id='1140'> +3.9583209E-01 </wgt>
<wgt id='1141'> +3.9554618E-01 </wgt>
<wgt id='1142'> +3.9567745E-01 </wgt>
<wgt id='1143'> +3.9583783E-01 </wgt>
<wgt id='1144'> +3.9544019E-01 </wgt>
<wgt id='1145'> +3.9551562E-01 </wgt>
<wgt id='1146'> +3.9546448E-01 </wgt>
<wgt id='1147'> +3.9575883E-01 </wgt>
<wgt id='1148'> +3.9556008E-01 </wgt>
<wgt id='1149'> +3.6708248E-01 </wgt>
<wgt id='1150'> +3.7104609E-01 </wgt>
<wgt id='1151'> +3.6633964E-01 </wgt>
<wgt id='1152'> +3.6194820E-01 </wgt>
<wgt id='1153'> +3.6482489E-01 </wgt>
<wgt id='1154'> +3.7136983E-01 </wgt>
<wgt id='1155'> +3.7115384E-01 </wgt>
<wgt id='1156'> +3.7096674E-01 </wgt>
<wgt id='1157'> +3.7178299E-01 </wgt>
<wgt id='1158'> +3.6372570E-01 </wgt>
<wgt id='1159'> +3.5000820E-01 </wgt>
<wgt id='1160'> +3.6268182E-01 </wgt>
<wgt id='1161'> +3.7256094E-01 </wgt>
<wgt id='1162'> +3.5897332E-01 </wgt>
<wgt id='1163'> +3.7692768E-01 </wgt>
<wgt id='1164'> +3.6283863E-01 </wgt>
<wgt id='1165'> +3.6242408E-01 </wgt>
<wgt id='1166'> +3.6639287E-01 </wgt>
<wgt id='1167'> +3.7041513E-01 </wgt>
<wgt id='1168'> +3.6399510E-01 </wgt>
<wgt id='1169'> +3.5933327E-01 </wgt>
<wgt id='1170'> +3.6819655E-01 </wgt>
<wgt id='1171'> +3.6614607E-01 </wgt>
<wgt id='1172'> +3.6898650E-01 </wgt>
<wgt id='1173'> +3.6888404E-01 </wgt>
<wgt id='1174'> +3.7334947E-01 </wgt>
<wgt id='1175'> +3.7131839E-01 </wgt>
<wgt id='1176'> +3.5149310E-01 </wgt>
<wgt id='1177'> +3.7188793E-01 </wgt>
<wgt id='1178'> +3.6592102E-01 </wgt>
<wgt id='1179'> +3.5959186E-01 </wgt>
<wgt id='1180'> +3.6594561E-01 </wgt>
<wgt id='1181'> +3.6613507E-01 </wgt>
<wgt id='1182'> +3.7142864E-01 </wgt>
<wgt id='1183'> +3.7104614E-01 </wgt>
<wgt id='1184'> +3.6033003E-01 </wgt>
<wgt id='1185'> +3.7156609E-01 </wgt>
<wgt id='1186'> +3.6035798E-01 </wgt>
<wgt id='1187'> +3.6789742E-01 </wgt>
<wgt id='1188'> +3.6059639E-01 </wgt>
<wgt id='1189'> +3.7253197E-01 </wgt>
<wgt id='1190'> +3.6812444E-01 </wgt>
<wgt id='1191'> +3.7460070E-01 </wgt>
<wgt id='1192'> +3.6524830E-01 </wgt>
<wgt id='1193'> +3.7259061E-01 </wgt>
<wgt id='1194'> +3.7127162E-01 </wgt>
<wgt id='1195'> +3.6631850E-01 </wgt>
<wgt id='1196'> +3.6963631E-01 </wgt>
<wgt id='1197'> +3.7542142E-01 </wgt>
<wgt id='1198'> +3.6187365E-01 </wgt>
<wgt id='1199'> +3.5968520E-01 </wgt>
<wgt id='1200'> +3.6934594E-01 </wgt>
<wgt id='1201'> +3.7029043E-01 </wgt>
<wgt id='1202'> +3.6982874E-01 </wgt>
<wgt id='1203'> +3.6781269E-01 </wgt>
<wgt id='1204'> +3.7818867E-01 </wgt>
<wgt id='1205'> +3.6521490E-01 </wgt>
<wgt id='1206'> +3.6605654E-01 </wgt>
<wgt id='1207'> +3.7615224E-01 </wgt>
<wgt id='1208'> +3.6594910E-01 </wgt>
<wgt id='1209'> +3.7270785E-01 </wgt>
<wgt id='1210'> +3.5766827E-01 </wgt>
<wgt id='1211'> +3.6697664E-01 </wgt>
<wgt id='1212'> +3.6614865E-01 </wgt>
<wgt id='1213'> +3.7818481E-01 </wgt>
<wgt id='1214'> +3.6733826E-01 </wgt>
<wgt id='1215'> +3.7341939E-01 </wgt>
<wgt id='1216'> +3.7030606E-01 </wgt>
<wgt id='1217'> +3.5838656E-01 </wgt>
<wgt id='1218'> +3.6900904E-01 </wgt>
<wgt id='1219'> +3.6881253E-01 </wgt>
<wgt id='1220'> +3.6519490E-01 </wgt>
<wgt id='1221'> +3.4764693E-01 </wgt>
<wgt id='1222'> +3.6712824E-01 </wgt>
<wgt id='1223'> +3.5651996E-01 </wgt>
<wgt id='1224'> +3.6237475E-01 </wgt>
<wgt id='1225'> +3.7044542E-01 </wgt>
<wgt id='1226'> +3.6366710E-01 </wgt>
<wgt id='1227'> +3.6840927E-01 </wgt>
<wgt id='1228'> +3.6626725E-01 </wgt>
<wgt id='1229'> +3.6762556E-01 </wgt>
<wgt id='1230'> +3.7339991E-01 </wgt>
<wgt id='1231'> +3.6242408E-01 </wgt>
<wgt id='1232'> +3.6147976E-01 </wgt>
<wgt id='1233'> +3.6582505E-01 </wgt>
<wgt id='1234'> +3.6387996E-01 </wgt>
<wgt id='1235'> +3.6933803E-01 </wgt>
<wgt id='1236'> +3.6895079E-01 </wgt>
<wgt id='1237'> +3.6346346E-01 </wgt>
<wgt id='1238'> +3.5708530E-01 </wgt>
<wgt id='1239'> +3.7928915E-01 </wgt>
<wgt id='1240'> +3.7692489E-01 </wgt>
<wgt id='1241'> +3.6763750E-01 </wgt>
<wgt id='1242'> +3.6419831E-01 </wgt>
<wgt id='1243'> +3.6633079E-01 </wgt>
<wgt id='1244'> +3.6812515E-01 </wgt>
<wgt id='1245'> +3.7371907E-01 </wgt>
<wgt id='1246'> +3.7128887E-01 </wgt>
<wgt id='1247'> +3.6529177E-01 </wgt>
<wgt id='1248'> +3.6756549E-01 </wgt>
<wgt id='1249'> +3.6905165E-01 </wgt>
<wgt id='1250'> +3.9043524E-01 </wgt>
<wgt id='1251'> +3.8368748E-01 </wgt>
<wgt id='1252'> +4.0143392E-01 </wgt>
<wgt id='1253'> +3.9789756E-01 </wgt>
<wgt id='1254'> +3.9402377E-01 </wgt>
<wgt id='1255'> +3.9380960E-01 </wgt>
<wgt id='1256'> +3.9660317E-01 </wgt>
<wgt id='1257'> +3.9221255E-01 </wgt>
<wgt id='1258'> +3.9323473E-01 </wgt>
<wgt id='1259'> +3.9410255E-01 </wgt>
<wgt id='1260'> +3.9450463E-01 </wgt>
<wgt id='1261'> +3.9287652E-01 </wgt>
<wgt id='1262'> +3.9432200E-01 </wgt>
<wgt id='1263'> +3.9346587E-01 </wgt>
<wgt id='1264'> +3.9384001E-01 </wgt>
<wgt id='1265'> +3.9378589E-01 </wgt>
<wgt id='1266'> +3.9400321E-01 </wgt>
<wgt id='1267'> +3.9361121E-01 </wgt>
<wgt id='1268'> +3.9812454E-01 </wgt>
<wgt id='1269'> +3.8954155E-01 </wgt>
<wgt id='1270'> +3.9145928E-01 </wgt>
<wgt id='1271'> +3.9619674E-01 </wgt>
<wgt id='1272'> +3.9332074E-01 </wgt>
<wgt id='1273'> +3.9417861E-01 </wgt>
<wgt id='1274'> +3.9410585E-01 </wgt>
<wgt id='1275'> +3.9346598E-01 </wgt>
<wgt id='1276'> +3.9559227E-01 </wgt>
<wgt id='1277'> +3.9203408E-01 </wgt>
<wgt id='1278'> +3.9136507E-01 </wgt>
<wgt id='1279'> +3.9578927E-01 </wgt>
<wgt id='1280'> +3.9353570E-01 </wgt>
<wgt id='1281'> +3.9450305E-01 </wgt>
<wgt id='1282'> +3.9435005E-01 </wgt>
<wgt id='1283'> +3.9290488E-01 </wgt>
<wgt id='1284'> +3.9321696E-01 </wgt>
<wgt id='1285'> +3.9432053E-01 </wgt>
<wgt id='1286'> +3.9521501E-01 </wgt>
<wgt id='1287'> +3.9374524E-01 </wgt>
<wgt id='1288'> +3.9419082E-01 </wgt>
<wgt id='1289'> +3.9354827E-01 </wgt>
<wgt id='1290'> +3.9446981E-01 </wgt>
<wgt id='1291'> +3.9356733E-01 </wgt>
<wgt id='1292'> +3.9633959E-01 </wgt>
<wgt id='1293'> +3.9085762E-01 </wgt>
<wgt id='1294'> +3.9266439E-01 </wgt>
<wgt id='1295'> +3.9336429E-01 </wgt>
<wgt id='1296'> +3.9657188E-01 </wgt>
<wgt id='1297'> +3.9762562E-01 </wgt>
<wgt id='1298'> +3.9573819E-01 </wgt>
<wgt id='1299'> +3.9521660E-01 </wgt>
<wgt id='1300'> +3.9810643E-01 </wgt>
<wgt id='1301'> +3.9556472E-01 </wgt>
<wgt id='1302'> +3.9810413E-01 </wgt>
<wgt id='1303'> +3.9618455E-01 </wgt>
<wgt id='1304'> +3.9684969E-01 </wgt>
<wgt id='1305'> +3.9699722E-01 </wgt>
<wgt id='1306'> +3.9599551E-01 </wgt>
<wgt id='1307'> +3.9867254E-01 </wgt>
<wgt id='1308'> +3.9528436E-01 </wgt>
<wgt id='1309'> +3.9668058E-01 </wgt>
<wgt id='1310'> +3.9645318E-01 </wgt>
<wgt id='1311'> +4.0044370E-01 </wgt>
<wgt id='1312'> +3.9518055E-01 </wgt>
<wgt id='1313'> +3.9410025E-01 </wgt>
<wgt id='1314'> +3.9963158E-01 </wgt>
<wgt id='1315'> +3.9700313E-01 </wgt>
<wgt id='1316'> +3.9618966E-01 </wgt>
<wgt id='1317'> +3.9728400E-01 </wgt>
<wgt id='1318'> +3.9573747E-01 </wgt>
<wgt id='1319'> +3.9542130E-01 </wgt>
<wgt id='1320'> +3.9742604E-01 </wgt>
<wgt id='1321'> +3.9400588E-01 </wgt>
<wgt id='1322'> +3.9786259E-01 </wgt>
<wgt id='1323'> +3.9580165E-01 </wgt>
<wgt id='1324'> +3.9726159E-01 </wgt>
<wgt id='1325'> +3.9690636E-01 </wgt>
<wgt id='1326'> +3.9623631E-01 </wgt>
<wgt id='1327'> +3.9641251E-01 </wgt>
<wgt id='1328'> +3.9666796E-01 </wgt>
<wgt id='1329'> +3.9675376E-01 </wgt>
<wgt id='1330'> +3.9649567E-01 </wgt>
<wgt id='1331'> +3.9776762E-01 </wgt>
<wgt id='1332'> +3.9636582E-01 </wgt>
<wgt id='1333'> +3.9864851E-01 </wgt>
<wgt id='1334'> +3.9639392E-01 </wgt>
<wgt id='1335'> +3.9830277E-01 </wgt>
<wgt id='1336'> +3.9614752E-01 </wgt>
<wgt id='1337'> +3.9657188E-01 </wgt>
<wgt id='1338'> +3.9730296E-01 </wgt>
<wgt id='1339'> +3.9701459E-01 </wgt>
<wgt id='1340'> +3.9675278E-01 </wgt>
<wgt id='1341'> +3.9629705E-01 </wgt>
<wgt id='1342'> +3.9608172E-01 </wgt>
<wgt id='1343'> +3.9589842E-01 </wgt>
<wgt id='1344'> +3.9712080E-01 </wgt>
<wgt id='1345'> +3.9877330E-01 </wgt>
<wgt id='1346'> +3.9550114E-01 </wgt>
<wgt id='1347'> +3.9976965E-01 </wgt>
<wgt id='1348'> +3.9515356E-01 </wgt>
<wgt id='1349'> +3.9640006E-01 </wgt>
<wgt id='1350'> +3.9774306E-01 </wgt>
<wgt id='1351'> +3.9713711E-01 </wgt>
<wgt id='1352'> +3.9712156E-01 </wgt>
<wgt id='1353'> +3.9825922E-01 </wgt>
<wgt id='1354'> +3.9633231E-01 </wgt>
<wgt id='1355'> +3.9666858E-01 </wgt>
<wgt id='1356'> +3.9745919E-01 </wgt>
<wgt id='1357'> +3.9804636E-01 </wgt>
<wgt id='1358'> +3.9657014E-01 </wgt>
<wgt id='1359'> +3.9539880E-01 </wgt>
<wgt id='1360'> +4.0143505E-01 </wgt>
<wgt id='1361'> +3.9475689E-01 </wgt>
<wgt id='1362'> +3.9945805E-01 </wgt>
<wgt id='1363'> +3.9666773E-01 </wgt>
<wgt id='1364'> +3.9768157E-01 </wgt>
<wgt id='1365'> +3.9663005E-01 </wgt>
<wgt id='1366'> +3.9736517E-01 </wgt>
<wgt id='1367'> +3.9406710E-01 </wgt>
<wgt id='1368'> +3.9863789E-01 </wgt>
<wgt id='1369'> +3.9803601E-01 </wgt>
<wgt id='1370'> +3.9636827E-01 </wgt>
<wgt id='1371'> +3.9720251E-01 </wgt>
<wgt id='1372'> +3.9690803E-01 </wgt>
<wgt id='1373'> +3.9895329E-01 </wgt>
<wgt id='1374'> +3.9702039E-01 </wgt>
<wgt id='1375'> +3.9752630E-01 </wgt>
<wgt id='1376'> +3.9709645E-01 </wgt>
<wgt id='1377'> +3.9703291E-01 </wgt>
<wgt id='1378'> +3.9734267E-01 </wgt>
<wgt id='1379'> +3.9727917E-01 </wgt>
<wgt id='1380'> +3.9777658E-01 </wgt>
<wgt id='1381'> +3.9523083E-01 </wgt>
<wgt id='1382'> +3.9947690E-01 </wgt>
<wgt id='1383'> +3.9659661E-01 </wgt>
<wgt id='1384'> +4.0027878E-01 </wgt>
<wgt id='1385'> +3.9712080E-01 </wgt>
<wgt id='1386'> +3.9785203E-01 </wgt>
<wgt id='1387'> +3.9755356E-01 </wgt>
<wgt id='1388'> +3.9727559E-01 </wgt>
<wgt id='1389'> +3.9681458E-01 </wgt>
<wgt id='1390'> +3.9659180E-01 </wgt>
<wgt id='1391'> +3.9639597E-01 </wgt>
<wgt id='1392'> +4.1304127E-01 </wgt>
<wgt id='1393'> +4.1316970E-01 </wgt>
<wgt id='1394'> +4.1287380E-01 </wgt>
<wgt id='1395'> +4.1334401E-01 </wgt>
<wgt id='1396'> +4.1279239E-01 </wgt>
<wgt id='1397'> +4.1471057E-01 </wgt>
<wgt id='1398'> +4.1137753E-01 </wgt>
<wgt id='1399'> +4.1457266E-01 </wgt>
<wgt id='1400'> +4.1110454E-01 </wgt>
<wgt id='1401'> +4.1156543E-01 </wgt>
<wgt id='1402'> +4.1484384E-01 </wgt>
<wgt id='1403'> +4.1263731E-01 </wgt>
<wgt id='1404'> +4.1381459E-01 </wgt>
<wgt id='1405'> +4.1249523E-01 </wgt>
<wgt id='1406'> +4.1374911E-01 </wgt>
<wgt id='1407'> +4.1297919E-01 </wgt>
<wgt id='1408'> +4.1304408E-01 </wgt>
<wgt id='1409'> +4.1502252E-01 </wgt>
<wgt id='1410'> +4.1073926E-01 </wgt>
<wgt id='1411'> +4.1229832E-01 </wgt>
<wgt id='1412'> +4.1359823E-01 </wgt>
<wgt id='1413'> +4.1435232E-01 </wgt>
<wgt id='1414'> +4.1162486E-01 </wgt>
<wgt id='1415'> +4.1464305E-01 </wgt>
<wgt id='1416'> +4.1128864E-01 </wgt>
<wgt id='1417'> +4.0967163E-01 </wgt>
<wgt id='1418'> +4.1713150E-01 </wgt>
<wgt id='1419'> +4.1285439E-01 </wgt>
<wgt id='1420'> +4.1280854E-01 </wgt>
<wgt id='1421'> +4.1203405E-01 </wgt>
<wgt id='1422'> +4.1424311E-01 </wgt>
<wgt id='1423'> +4.1032819E-01 </wgt>
<wgt id='1424'> +4.1486343E-01 </wgt>
<wgt id='1425'> +4.1330097E-01 </wgt>
<wgt id='1426'> +4.1266729E-01 </wgt>
<wgt id='1427'> +4.1292123E-01 </wgt>
<wgt id='1428'> +4.1072436E-01 </wgt>
<wgt id='1429'> +4.1234369E-01 </wgt>
<wgt id='1430'> +4.1353538E-01 </wgt>
<wgt id='1431'> +4.1222398E-01 </wgt>
<wgt id='1432'> +4.1367306E-01 </wgt>
<wgt id='1433'> +4.1031686E-01 </wgt>
<wgt id='1434'> +4.1586247E-01 </wgt>
<wgt id='1435'> +4.1224954E-01 </wgt>
<wgt id='1436'> +4.1387905E-01 </wgt>
<wgt id='1437'> +4.1243671E-01 </wgt>
<wgt id='1438'> +4.1446481E-01 </wgt>
<wgt id='1439'> +4.1528158E-01 </wgt>
<wgt id='1440'> +4.1121036E-01 </wgt>
<wgt id='1441'> +4.1370149E-01 </wgt>
<wgt id='1442'> +4.1367630E-01 </wgt>
<wgt id='1443'> +4.1023624E-01 </wgt>
<wgt id='1444'> +4.1036033E-01 </wgt>
<wgt id='1445'> +4.1003597E-01 </wgt>
<wgt id='1446'> +4.1054803E-01 </wgt>
<wgt id='1447'> +4.0999386E-01 </wgt>
<wgt id='1448'> +4.1201757E-01 </wgt>
<wgt id='1449'> +4.0855417E-01 </wgt>
<wgt id='1450'> +4.1170590E-01 </wgt>
<wgt id='1451'> +4.0857100E-01 </wgt>
<wgt id='1452'> +4.0876064E-01 </wgt>
<wgt id='1453'> +4.1162641E-01 </wgt>
<wgt id='1454'> +4.0973505E-01 </wgt>
<wgt id='1455'> +4.1125774E-01 </wgt>
<wgt id='1456'> +4.0963054E-01 </wgt>
<wgt id='1457'> +4.1130893E-01 </wgt>
<wgt id='1458'> +4.1028547E-01 </wgt>
<wgt id='1459'> +4.1018211E-01 </wgt>
<wgt id='1460'> +4.1211600E-01 </wgt>
<wgt id='1461'> +4.0794453E-01 </wgt>
<wgt id='1462'> +4.0906796E-01 </wgt>
<wgt id='1463'> +4.1121882E-01 </wgt>
<wgt id='1464'> +4.1147873E-01 </wgt>
<wgt id='1465'> +4.0855578E-01 </wgt>
<wgt id='1466'> +4.1272340E-01 </wgt>
<wgt id='1467'> +4.0839366E-01 </wgt>
<wgt id='1468'> +4.1390845E-01 </wgt>
<wgt id='1469'> +4.0660989E-01 </wgt>
<wgt id='1470'> +4.1021033E-01 </wgt>
<wgt id='1471'> +4.0995005E-01 </wgt>
<wgt id='1472'> +4.0944796E-01 </wgt>
<wgt id='1473'> +4.1114472E-01 </wgt>
<wgt id='1474'> +4.0832506E-01 </wgt>
<wgt id='1475'> +4.1213464E-01 </wgt>
<wgt id='1476'> +4.1093321E-01 </wgt>
<wgt id='1477'> +4.0951223E-01 </wgt>
<wgt id='1478'> +4.1017100E-01 </wgt>
<wgt id='1479'> +4.0787310E-01 </wgt>
<wgt id='1480'> +4.0978640E-01 </wgt>
<wgt id='1481'> +4.1048629E-01 </wgt>
<wgt id='1482'> +4.0946600E-01 </wgt>
<wgt id='1483'> +4.1094965E-01 </wgt>
<wgt id='1484'> +4.0741138E-01 </wgt>
<wgt id='1485'> +4.1316436E-01 </wgt>
<wgt id='1486'> +4.0962375E-01 </wgt>
<wgt id='1487'> +4.1086747E-01 </wgt>
<wgt id='1488'> +4.0947867E-01 </wgt>
<wgt id='1489'> +4.1190006E-01 </wgt>
<wgt id='1490'> +4.1308992E-01 </wgt>
<wgt id='1491'> +4.0866289E-01 </wgt>
<wgt id='1492'> +4.1129287E-01 </wgt>
<wgt id='1493'> +4.1102081E-01 </wgt>
<wgt id='1494'> +3.9217891E-01 </wgt>
<wgt id='1495'> +3.8855235E-01 </wgt>
<wgt id='1496'> +3.8985210E-01 </wgt>
<wgt id='1497'> +3.9098308E-01 </wgt>
<wgt id='1498'> +3.9348444E-01 </wgt>
<wgt id='1499'> +3.9220641E-01 </wgt>
<wgt id='1500'> +3.9703792E-01 </wgt>
<wgt id='1501'> +3.9615495E-01 </wgt>
<wgt id='1502'> +3.9525860E-01 </wgt>
<wgt id='1503'> +3.9426643E-01 </wgt>
<wgt id='1504'> +3.9328845E-01 </wgt>
<wgt id='1505'> +3.9118013E-01 </wgt>
<wgt id='1506'> +3.9014808E-01 </wgt>
<wgt id='1507'> +3.8906409E-01 </wgt>
<wgt id='1508'> +3.9220641E-01 </wgt>
<wgt id='1509'> +3.9289328E-01 </wgt>
<wgt id='1510'> +3.9252515E-01 </wgt>
<wgt id='1511'> +3.9196242E-01 </wgt>
<wgt id='1512'> +3.9170165E-01 </wgt>
<wgt id='1513'> +3.9645009E-01 </wgt>
<wgt id='1514'> +3.9642951E-01 </wgt>
<wgt id='1515'> +3.9650701E-01 </wgt>
<wgt id='1516'> +3.9717558E-01 </wgt>
<wgt id='1517'> +3.9575904E-01 </wgt>
<wgt id='1518'> +3.9728471E-01 </wgt>
<wgt id='1519'> +3.9613423E-01 </wgt>
<wgt id='1520'> +3.9894263E-01 </wgt>
<wgt id='1521'> +3.9399120E-01 </wgt>
<wgt id='1522'> +3.9574396E-01 </wgt>
<wgt id='1523'> +3.9715262E-01 </wgt>
<wgt id='1524'> +3.9886424E-01 </wgt>
<wgt id='1525'> +3.9543248E-01 </wgt>
<wgt id='1526'> +3.9636380E-01 </wgt>
<wgt id='1527'> +3.9657025E-01 </wgt>
<wgt id='1528'> +3.9605379E-01 </wgt>
<wgt id='1529'> +3.9692549E-01 </wgt>
<wgt id='1530'> +3.9869639E-01 </wgt>
<wgt id='1531'> +3.9518580E-01 </wgt>
<wgt id='1532'> +3.9787996E-01 </wgt>
<wgt id='1533'> +3.9451652E-01 </wgt>
<wgt id='1534'> +3.9531770E-01 </wgt>
<wgt id='1535'> +3.9726319E-01 </wgt>
<wgt id='1536'> +3.9376768E-01 </wgt>
<wgt id='1537'> +3.9910593E-01 </wgt>
<wgt id='1538'> +3.9523153E-01 </wgt>
<wgt id='1539'> +3.9936568E-01 </wgt>
<wgt id='1540'> +3.9554157E-01 </wgt>
<wgt id='1541'> +3.9677302E-01 </wgt>
<wgt id='1542'> +3.9730644E-01 </wgt>
<wgt id='1543'> +3.9464771E-01 </wgt>
<wgt id='1544'> +3.9540691E-01 </wgt>
<wgt id='1545'> +3.9783308E-01 </wgt>
<wgt id='1546'> +3.9641881E-01 </wgt>
<wgt id='1547'> +3.9559410E-01 </wgt>
<wgt id='1548'> +3.9425062E-01 </wgt>
<wgt id='1549'> +3.9658764E-01 </wgt>
<wgt id='1550'> +3.9641012E-01 </wgt>
<wgt id='1551'> +3.9628420E-01 </wgt>
<wgt id='1552'> +3.9541254E-01 </wgt>
<wgt id='1553'> +3.9710953E-01 </wgt>
<wgt id='1554'> +3.9826191E-01 </wgt>
<wgt id='1555'> +3.9310375E-01 </wgt>
<wgt id='1556'> +3.9700518E-01 </wgt>
<wgt id='1557'> +3.9635339E-01 </wgt>
<wgt id='1558'> +3.9472357E-01 </wgt>
<wgt id='1559'> +3.9809956E-01 </wgt>
<wgt id='1560'> +3.9873877E-01 </wgt>
<wgt id='1561'> +3.9548042E-01 </wgt>
<wgt id='1562'> +3.9515219E-01 </wgt>
<wgt id='1563'> +3.9764654E-01 </wgt>
<wgt id='1564'> +3.9645009E-01 </wgt>
<wgt id='1565'> +3.9406635E-01 </wgt>
<wgt id='1566'> +3.9805715E-01 </wgt>
<wgt id='1567'> +3.9613101E-01 </wgt>
<wgt id='1568'> +4.0142614E-01 </wgt>
<wgt id='1569'> +4.0036580E-01 </wgt>
<wgt id='1570'> +3.9931542E-01 </wgt>
<wgt id='1571'> +3.9825213E-01 </wgt>
<wgt id='1572'> +3.9717640E-01 </wgt>
<wgt id='1573'> +3.9486210E-01 </wgt>
<wgt id='1574'> +3.9357382E-01 </wgt>
<wgt id='1575'> +3.9245050E-01 </wgt>
<wgt id='1576'> +3.9613101E-01 </wgt>
<wgt id='1577'> +3.9658957E-01 </wgt>
<wgt id='1578'> +3.9633169E-01 </wgt>
<wgt id='1579'> +3.9592397E-01 </wgt>
<wgt id='1580'> +3.9579439E-01 </wgt>
<wgt id='1581'> +3.9723328E-01 </wgt>
<wgt id='1582'> +3.9777765E-01 </wgt>
<wgt id='1583'> +3.9852985E-01 </wgt>
<wgt id='1584'> +3.9615868E-01 </wgt>
<wgt id='1585'> +3.9837198E-01 </wgt>
<wgt id='1586'> +3.9311602E-01 </wgt>
<wgt id='1587'> +3.9461922E-01 </wgt>
<wgt id='1588'> +3.9999237E-01 </wgt>
<wgt id='1589'> +3.9693635E-01 </wgt>
<wgt id='1590'> +3.9961919E-01 </wgt>
<wgt id='1591'> +3.9675691E-01 </wgt>
<wgt id='1592'> +3.9170894E-01 </wgt>
<wgt id='1593'> +3.9808321E-01 </wgt>
<wgt id='1594'> +3.9493729E-01 </wgt>
<wgt id='1595'> +3.9684570E-01 </wgt>
<wgt id='1596'> +3.9955783E-01 </wgt>
<wgt id='1597'> +3.9844239E-01 </wgt>
<wgt id='1598'> +3.9784422E-01 </wgt>
<wgt id='1599'> +3.9678953E-01 </wgt>
<wgt id='1600'> +3.9791322E-01 </wgt>
<wgt id='1601'> +3.9606142E-01 </wgt>
<wgt id='1602'> +3.9799756E-01 </wgt>
<wgt id='1603'> +3.9821080E-01 </wgt>
<wgt id='1604'> +3.9693524E-01 </wgt>
<wgt id='1605'> +3.9633951E-01 </wgt>
<wgt id='1606'> +3.9762683E-01 </wgt>
<wgt id='1607'> +3.9746036E-01 </wgt>
<wgt id='1608'> +3.9709441E-01 </wgt>
<wgt id='1609'> +3.9787335E-01 </wgt>
<wgt id='1610'> +3.9717774E-01 </wgt>
<wgt id='1611'> +3.9889853E-01 </wgt>
<wgt id='1612'> +3.8871375E-01 </wgt>
<wgt id='1613'> +3.8864488E-01 </wgt>
<wgt id='1614'> +3.8895151E-01 </wgt>
<wgt id='1615'> +3.8878017E-01 </wgt>
<wgt id='1616'> +3.8859752E-01 </wgt>
<wgt id='1617'> +3.8881829E-01 </wgt>
<wgt id='1618'> +3.8939342E-01 </wgt>
<wgt id='1619'> +3.8873970E-01 </wgt>
<wgt id='1620'> +3.8895173E-01 </wgt>
<wgt id='1621'> +3.8864661E-01 </wgt>
<wgt id='1622'> +3.8925782E-01 </wgt>
<wgt id='1623'> +3.8779351E-01 </wgt>
<wgt id='1624'> +3.8725134E-01 </wgt>
<wgt id='1625'> +3.8729937E-01 </wgt>
<wgt id='1626'> +3.8873189E-01 </wgt>
<wgt id='1627'> +3.8755390E-01 </wgt>
<wgt id='1628'> +3.8897594E-01 </wgt>
<wgt id='1629'> +3.8906485E-01 </wgt>
<wgt id='1630'> +3.8768776E-01 </wgt>
<wgt id='1631'> +3.8927602E-01 </wgt>
<wgt id='1632'> +3.8762596E-01 </wgt>
<wgt id='1633'> +3.8934619E-01 </wgt>
<wgt id='1634'> +3.8818085E-01 </wgt>
<wgt id='1635'> +3.8774505E-01 </wgt>
<wgt id='1636'> +3.8780237E-01 </wgt>
<wgt id='1637'> +3.8820350E-01 </wgt>
<wgt id='1638'> +3.8806094E-01 </wgt>
<wgt id='1639'> +3.8949869E-01 </wgt>
<wgt id='1640'> +3.8929597E-01 </wgt>
<wgt id='1641'> +3.8681241E-01 </wgt>
<wgt id='1642'> +3.8780149E-01 </wgt>
<wgt id='1643'> +3.8843653E-01 </wgt>
<wgt id='1644'> +3.8805392E-01 </wgt>
<wgt id='1645'> +3.8832826E-01 </wgt>
<wgt id='1646'> +3.8962588E-01 </wgt>
<wgt id='1647'> +3.8785832E-01 </wgt>
<wgt id='1648'> +3.8797325E-01 </wgt>
<wgt id='1649'> +3.8965992E-01 </wgt>
<wgt id='1650'> +3.8820407E-01 </wgt>
<wgt id='1651'> +3.8842150E-01 </wgt>
<wgt id='1652'> +3.8811718E-01 </wgt>
<wgt id='1653'> +3.8824541E-01 </wgt>
<wgt id='1654'> +3.8806481E-01 </wgt>
<wgt id='1655'> +3.8936090E-01 </wgt>
<wgt id='1656'> +3.8895133E-01 </wgt>
<wgt id='1657'> +3.8831210E-01 </wgt>
<wgt id='1658'> +3.8955393E-01 </wgt>
<wgt id='1659'> +3.8972001E-01 </wgt>
<wgt id='1660'> +3.8863391E-01 </wgt>
<wgt id='1661'> +3.8881017E-01 </wgt>
<wgt id='1662'> +3.8925906E-01 </wgt>
<wgt id='1663'> +3.8968681E-01 </wgt>
<wgt id='1664'> +3.8880909E-01 </wgt>
<wgt id='1665'> +3.8906352E-01 </wgt>
<wgt id='1666'> +3.8941440E-01 </wgt>
<wgt id='1667'> +3.8872998E-01 </wgt>
<wgt id='1668'> +3.8838466E-01 </wgt>
<wgt id='1669'> +3.8849071E-01 </wgt>
<wgt id='1670'> +3.8815181E-01 </wgt>
<wgt id='1671'> +3.8881759E-01 </wgt>
<wgt id='1672'> +3.8904634E-01 </wgt>
<wgt id='1673'> +3.8886928E-01 </wgt>
<wgt id='1674'> +3.8871831E-01 </wgt>
<wgt id='1675'> +3.8839411E-01 </wgt>
<wgt id='1676'> +3.8800082E-01 </wgt>
<wgt id='1677'> +3.8876179E-01 </wgt>
<wgt id='1678'> +3.8897170E-01 </wgt>
<wgt id='1679'> +3.8922907E-01 </wgt>
<wgt id='1680'> +3.8957749E-01 </wgt>
<wgt id='1681'> +3.8865101E-01 </wgt>
<wgt id='1682'> +3.8855968E-01 </wgt>
<wgt id='1683'> +3.8851097E-01 </wgt>
<wgt id='1684'> +3.8870721E-01 </wgt>
<wgt id='1685'> +3.8827169E-01 </wgt>
<wgt id='1686'> +3.8852931E-01 </wgt>
<wgt id='1687'> +3.8834572E-01 </wgt>
<wgt id='1688'> +3.8855304E-01 </wgt>
<wgt id='1689'> +3.8889052E-01 </wgt>
<wgt id='1690'> +3.8898452E-01 </wgt>
<wgt id='1691'> +3.8906573E-01 </wgt>
<wgt id='1692'> +3.8864846E-01 </wgt>
<wgt id='1693'> +3.8911783E-01 </wgt>
<wgt id='1694'> +3.8914894E-01 </wgt>
<wgt id='1695'> +3.8897682E-01 </wgt>
<wgt id='1696'> +3.8854101E-01 </wgt>
<wgt id='1697'> +3.8871368E-01 </wgt>
<wgt id='1698'> +3.8851625E-01 </wgt>
<wgt id='1699'> +3.8869033E-01 </wgt>
<wgt id='1700'> +3.8864501E-01 </wgt>
<wgt id='1701'> +3.8881983E-01 </wgt>
<wgt id='1702'> +3.8868296E-01 </wgt>
<wgt id='1703'> +3.8865955E-01 </wgt>
<wgt id='1704'> +3.8877215E-01 </wgt>
<wgt id='1705'> +3.8853868E-01 </wgt>
<wgt id='1706'> +3.8852373E-01 </wgt>
<wgt id='1707'> +3.8861151E-01 </wgt>
<wgt id='1708'> +3.8848985E-01 </wgt>
<wgt id='1709'> +3.8890380E-01 </wgt>
<wgt id='1710'> +3.8852459E-01 </wgt>
<wgt id='1711'> +3.8870646E-01 </wgt>
<wgt id='1712'> +3.8850081E-01 </wgt>
<wgt id='1713'> +3.8416380E-01 </wgt>
<wgt id='1714'> +3.9366380E-01 </wgt>
<wgt id='1715'> +3.7467309E-01 </wgt>
<wgt id='1716'> +3.6968431E-01 </wgt>
<wgt id='1717'> +3.8162425E-01 </wgt>
<wgt id='1718'> +3.7396384E-01 </wgt>
<wgt id='1719'> +3.6733380E-01 </wgt>
<wgt id='1720'> +3.8778709E-01 </wgt>
<wgt id='1721'> +3.7608738E-01 </wgt>
<wgt id='1722'> +3.7082515E-01 </wgt>
<wgt id='1723'> +3.7356786E-01 </wgt>
<wgt id='1724'> +3.7496859E-01 </wgt>
<wgt id='1725'> +3.7586034E-01 </wgt>
<wgt id='1726'> +3.7257232E-01 </wgt>
<wgt id='1727'> +3.7635394E-01 </wgt>
<wgt id='1728'> +3.7458261E-01 </wgt>
<wgt id='1729'> +3.7617790E-01 </wgt>
<wgt id='1730'> +3.6701520E-01 </wgt>
<wgt id='1731'> +3.5545143E-01 </wgt>
<wgt id='1732'> +3.7018217E-01 </wgt>
<wgt id='1733'> +3.7462429E-01 </wgt>
<wgt id='1734'> +3.8708915E-01 </wgt>
<wgt id='1735'> +3.6392462E-01 </wgt>
<wgt id='1736'> +3.8476705E-01 </wgt>
<wgt id='1737'> +3.7414076E-01 </wgt>
<wgt id='1738'> +3.8269205E-01 </wgt>
<wgt id='1739'> +3.7470327E-01 </wgt>
<wgt id='1740'> +3.8064150E-01 </wgt>
<wgt id='1741'> +3.6879614E-01 </wgt>
<wgt id='1742'> +3.7604322E-01 </wgt>
<wgt id='1743'> +3.6696271E-01 </wgt>
<wgt id='1744'> +3.8107917E-01 </wgt>
<wgt id='1745'> +3.7081653E-01 </wgt>
<wgt id='1746'> +3.7510817E-01 </wgt>
<wgt id='1747'> +3.8188635E-01 </wgt>
<wgt id='1748'> +3.7056594E-01 </wgt>
<wgt id='1749'> +3.7906179E-01 </wgt>
<wgt id='1750'> +3.6934392E-01 </wgt>
<wgt id='1751'> +3.7433051E-01 </wgt>
<wgt id='1752'> +3.6986194E-01 </wgt>
<wgt id='1753'> +3.7602460E-01 </wgt>
<wgt id='1754'> +3.7500192E-01 </wgt>
<wgt id='1755'> +3.7841743E-01 </wgt>
<wgt id='1756'> +3.7841778E-01 </wgt>
<wgt id='1757'> +3.6906679E-01 </wgt>
<wgt id='1758'> +3.7616533E-01 </wgt>
<wgt id='1759'> +3.8009346E-01 </wgt>
<wgt id='1760'> +3.7067100E-01 </wgt>
<wgt id='1761'> +3.7383287E-01 </wgt>
<wgt id='1762'> +3.7635394E-01 </wgt>
<wgt id='1763'> +3.7714643E-01 </wgt>
<wgt id='1764'> +3.8282774E-01 </wgt>
<wgt id='1765'> +3.8115492E-01 </wgt>
<wgt id='1766'> +3.8179560E-01 </wgt>
<wgt id='1767'> +3.6920734E-01 </wgt>
<wgt id='1768'> +3.6142880E-01 </wgt>
<wgt id='1769'> +3.8036046E-01 </wgt>
<wgt id='1770'> +3.7020629E-01 </wgt>
<wgt id='1771'> +3.6592711E-01 </wgt>
<wgt id='1772'> +3.7264247E-01 </wgt>
<wgt id='1773'> +3.7947349E-01 </wgt>
<wgt id='1774'> +3.6969185E-01 </wgt>
<wgt id='1775'> +3.7674154E-01 </wgt>
<wgt id='1776'> +3.8155817E-01 </wgt>
<wgt id='1777'> +3.7413039E-01 </wgt>
<wgt id='1778'> +3.7737502E-01 </wgt>
<wgt id='1779'> +3.7351290E-01 </wgt>
<wgt id='1780'> +3.8596097E-01 </wgt>
<wgt id='1781'> +3.7993113E-01 </wgt>
<wgt id='1782'> +3.6791768E-01 </wgt>
<wgt id='1783'> +3.7261322E-01 </wgt>
<wgt id='1784'> +3.7223940E-01 </wgt>
<wgt id='1785'> +3.7779889E-01 </wgt>
<wgt id='1786'> +3.7457872E-01 </wgt>
<wgt id='1787'> +3.7805213E-01 </wgt>
<wgt id='1788'> +3.7348259E-01 </wgt>
<wgt id='1789'> +3.7910364E-01 </wgt>
<wgt id='1790'> +3.7691500E-01 </wgt>
<wgt id='1791'> +3.7235711E-01 </wgt>
<wgt id='1792'> +3.7763178E-01 </wgt>
<wgt id='1793'> +3.7783972E-01 </wgt>
<wgt id='1794'> +3.6328180E-01 </wgt>
<wgt id='1795'> +3.6111255E-01 </wgt>
<wgt id='1796'> +3.7613297E-01 </wgt>
<wgt id='1797'> +3.8288145E-01 </wgt>
<wgt id='1798'> +3.7304839E-01 </wgt>
<wgt id='1799'> +3.7535120E-01 </wgt>
<wgt id='1800'> +3.7541588E-01 </wgt>
<wgt id='1801'> +3.7126913E-01 </wgt>
<wgt id='1802'> +3.7131321E-01 </wgt>
<wgt id='1803'> +3.7512153E-01 </wgt>
<wgt id='1804'> +3.7975038E-01 </wgt>
<wgt id='1805'> +3.7522895E-01 </wgt>
<wgt id='1806'> +3.7322554E-01 </wgt>
<wgt id='1807'> +3.7430898E-01 </wgt>
<wgt id='1808'> +3.6955002E-01 </wgt>
<wgt id='1809'> +3.7685078E-01 </wgt>
<wgt id='1810'> +3.7176137E-01 </wgt>
<wgt id='1811'> +3.7406113E-01 </wgt>
<wgt id='1812'> +3.7070493E-01 </wgt>
<wgt id='1813'> +3.7833633E-01 </wgt>
<wgt id='1814'> +3.6834838E-01 </wgt>
<wgt id='1815'> +3.8030187E-01 </wgt>
<wgt id='1816'> +4.0512829E-01 </wgt>
<wgt id='1817'> +4.1417554E-01 </wgt>
<wgt id='1818'> +4.0686271E-01 </wgt>
<wgt id='1819'> +4.1836958E-01 </wgt>
<wgt id='1820'> +4.0563369E-01 </wgt>
<wgt id='1821'> +4.2438483E-01 </wgt>
<wgt id='1822'> +4.0514185E-01 </wgt>
<wgt id='1823'> +4.0378466E-01 </wgt>
<wgt id='1824'> +4.0163647E-01 </wgt>
<wgt id='1825'> +4.0491570E-01 </wgt>
<wgt id='1826'> +4.0939397E-01 </wgt>
<wgt id='1827'> +4.0491027E-01 </wgt>
<wgt id='1828'> +4.0688472E-01 </wgt>
<wgt id='1829'> +4.0090878E-01 </wgt>
<wgt id='1830'> +4.1086372E-01 </wgt>
<wgt id='1831'> +4.1161005E-01 </wgt>
<wgt id='1832'> +4.0280074E-01 </wgt>
<wgt id='1833'> +4.0925588E-01 </wgt>
<wgt id='1834'> +4.0313763E-01 </wgt>
<wgt id='1835'> +4.0141358E-01 </wgt>
<wgt id='1836'> +4.0991256E-01 </wgt>
<wgt id='1837'> +4.0618663E-01 </wgt>
<wgt id='1838'> +4.0123703E-01 </wgt>
<wgt id='1839'> +4.0985437E-01 </wgt>
<wgt id='1840'> +4.0521852E-01 </wgt>
<wgt id='1841'> +4.0198818E-01 </wgt>
<wgt id='1842'> +4.0744356E-01 </wgt>
<wgt id='1843'> +4.0338565E-01 </wgt>
<wgt id='1844'> +4.1113244E-01 </wgt>
<wgt id='1845'> +4.1273014E-01 </wgt>
<wgt id='1846'> +4.0704811E-01 </wgt>
<wgt id='1847'> +4.0016427E-01 </wgt>
<wgt id='1848'> +4.0854927E-01 </wgt>
<wgt id='1849'> +4.0119017E-01 </wgt>
<wgt id='1850'> +4.0307921E-01 </wgt>
<wgt id='1851'> +4.0652129E-01 </wgt>
<wgt id='1852'> +3.9829536E-01 </wgt>
<wgt id='1853'> +3.9960996E-01 </wgt>
<wgt id='1854'> +4.0433123E-01 </wgt>
<wgt id='1855'> +4.0600188E-01 </wgt>
<wgt id='1856'> +4.0110327E-01 </wgt>
<wgt id='1857'> +4.1028464E-01 </wgt>
<wgt id='1858'> +4.0164398E-01 </wgt>
<wgt id='1859'> +4.0038381E-01 </wgt>
<wgt id='1860'> +4.0728246E-01 </wgt>
<wgt id='1861'> +4.0453573E-01 </wgt>
<wgt id='1862'> +4.0455594E-01 </wgt>
<wgt id='1863'> +4.0262466E-01 </wgt>
<wgt id='1864'> +4.0288065E-01 </wgt>
<wgt id='1865'> +4.1116236E-01 </wgt>
<wgt id='1866'> +4.0566659E-01 </wgt>
<wgt id='1867'> +4.0676146E-01 </wgt>
<wgt id='1868'> +4.0666315E-01 </wgt>
<wgt id='1869'> +4.1209955E-01 </wgt>
<wgt id='1870'> +3.9714784E-01 </wgt>
<wgt id='1871'> +4.0042847E-01 </wgt>
<wgt id='1872'> +4.0484573E-01 </wgt>
<wgt id='1873'> +4.0195533E-01 </wgt>
<wgt id='1874'> +4.0787029E-01 </wgt>
<wgt id='1875'> +4.0607376E-01 </wgt>
<wgt id='1876'> +4.0331917E-01 </wgt>
<wgt id='1877'> +4.0558544E-01 </wgt>
<wgt id='1878'> +4.0882951E-01 </wgt>
<wgt id='1879'> +4.0560267E-01 </wgt>
<wgt id='1880'> +3.9835962E-01 </wgt>
<wgt id='1881'> +3.9715490E-01 </wgt>
<wgt id='1882'> +4.0011209E-01 </wgt>
<wgt id='1883'> +4.1911748E-01 </wgt>
<wgt id='1884'> +4.0068987E-01 </wgt>
<wgt id='1885'> +3.9878295E-01 </wgt>
<wgt id='1886'> +3.9299997E-01 </wgt>
<wgt id='1887'> +4.0250334E-01 </wgt>
<wgt id='1888'> +4.1001201E-01 </wgt>
<wgt id='1889'> +4.1412049E-01 </wgt>
<wgt id='1890'> +4.1454723E-01 </wgt>
<wgt id='1891'> +4.0868782E-01 </wgt>
<wgt id='1892'> +4.0833123E-01 </wgt>
<wgt id='1893'> +3.9605042E-01 </wgt>
<wgt id='1894'> +4.0247780E-01 </wgt>
<wgt id='1895'> +4.1030644E-01 </wgt>
<wgt id='1896'> +3.9713942E-01 </wgt>
<wgt id='1897'> +4.0332269E-01 </wgt>
<wgt id='1898'> +4.0677766E-01 </wgt>
<wgt id='1899'> +4.0147846E-01 </wgt>
<wgt id='1900'> +4.0455432E-01 </wgt>
<wgt id='1901'> +4.0824919E-01 </wgt>
<wgt id='1902'> +4.0079655E-01 </wgt>
<wgt id='1903'> +4.0818737E-01 </wgt>
<wgt id='1904'> +4.0990070E-01 </wgt>
<wgt id='1905'> +3.9926126E-01 </wgt>
<wgt id='1906'> +4.0066222E-01 </wgt>
<wgt id='1907'> +4.0223896E-01 </wgt>
<wgt id='1908'> +4.0165946E-01 </wgt>
<wgt id='1909'> +4.0474938E-01 </wgt>
<wgt id='1910'> +4.1020636E-01 </wgt>
<wgt id='1911'> +4.0153775E-01 </wgt>
<wgt id='1912'> +3.9818812E-01 </wgt>
<wgt id='1913'> +4.0314440E-01 </wgt>
<wgt id='1914'> +4.0282036E-01 </wgt>
<wgt id='1915'> +4.0536719E-01 </wgt>
<wgt id='1916'> +3.9594680E-01 </wgt>
<wgt id='1917'> +4.1152636E-01 </wgt>
<wgt id='1918'> +4.0748863E-01 </wgt>
<wgt id='1919'> +4.0512829E-01 </wgt>
<wgt id='1920'> +4.1417554E-01 </wgt>
<wgt id='1921'> +4.0686271E-01 </wgt>
<wgt id='1922'> +4.1836958E-01 </wgt>
<wgt id='1923'> +4.0563369E-01 </wgt>
<wgt id='1924'> +4.2438483E-01 </wgt>
<wgt id='1925'> +4.0514185E-01 </wgt>
<wgt id='1926'> +4.0378466E-01 </wgt>
<wgt id='1927'> +4.0163647E-01 </wgt>
<wgt id='1928'> +4.0491570E-01 </wgt>
<wgt id='1929'> +4.0939397E-01 </wgt>
<wgt id='1930'> +4.0491027E-01 </wgt>
<wgt id='1931'> +4.0688472E-01 </wgt>
<wgt id='1932'> +4.0090878E-01 </wgt>
<wgt id='1933'> +4.1086372E-01 </wgt>
<wgt id='1934'> +4.1161005E-01 </wgt>
<wgt id='1935'> +4.0280074E-01 </wgt>
<wgt id='1936'> +4.0925588E-01 </wgt>
<wgt id='1937'> +4.0313763E-01 </wgt>
<wgt id='1938'> +4.0141358E-01 </wgt>
<wgt id='1939'> +4.0991256E-01 </wgt>
<wgt id='1940'> +4.0618663E-01 </wgt>
<wgt id='1941'> +4.0123703E-01 </wgt>
<wgt id='1942'> +4.0985437E-01 </wgt>
<wgt id='1943'> +4.0521852E-01 </wgt>
<wgt id='1944'> +4.0198818E-01 </wgt>
<wgt id='1945'> +4.0744356E-01 </wgt>
<wgt id='1946'> +4.0338565E-01 </wgt>
<wgt id='1947'> +4.1113244E-01 </wgt>
<wgt id='1948'> +4.1273014E-01 </wgt>
<wgt id='1949'> +4.0704811E-01 </wgt>
<wgt id='1950'> +4.0016427E-01 </wgt>
<wgt id='1951'> +4.0854927E-01 </wgt>
<wgt id='1952'> +4.0119017E-01 </wgt>
<wgt id='1953'> +4.0307921E-01 </wgt>
<wgt id='1954'> +4.0652129E-01 </wgt>
<wgt id='1955'> +3.9829536E-01 </wgt>
<wgt id='1956'> +3.9960996E-01 </wgt>
<wgt id='1957'> +4.0433123E-01 </wgt>
<wgt id='1958'> +4.0600188E-01 </wgt>
<wgt id='1959'> +4.0110327E-01 </wgt>
<wgt id='1960'> +4.1028464E-01 </wgt>
<wgt id='1961'> +4.0164398E-01 </wgt>
<wgt id='1962'> +4.0038381E-01 </wgt>
<wgt id='1963'> +4.0728246E-01 </wgt>
<wgt id='1964'> +4.0453573E-01 </wgt>
<wgt id='1965'> +4.0455594E-01 </wgt>
<wgt id='1966'> +4.0262466E-01 </wgt>
<wgt id='1967'> +4.0288065E-01 </wgt>
<wgt id='1968'> +4.1116236E-01 </wgt>
<wgt id='1969'> +4.0566659E-01 </wgt>
<wgt id='1970'> +4.0676146E-01 </wgt>
<wgt id='1971'> +4.0666315E-01 </wgt>
<wgt id='1972'> +4.1209955E-01 </wgt>
<wgt id='1973'> +3.9714784E-01 </wgt>
<wgt id='1974'> +4.0042847E-01 </wgt>
<wgt id='1975'> +4.0484573E-01 </wgt>
<wgt id='1976'> +4.0195533E-01 </wgt>
<wgt id='1977'> +4.0787029E-01 </wgt>
<wgt id='1978'> +4.0607376E-01 </wgt>
<wgt id='1979'> +4.0331917E-01 </wgt>
<wgt id='1980'> +4.0558544E-01 </wgt>
<wgt id='1981'> +4.0882951E-01 </wgt>
<wgt id='1982'> +4.0560267E-01 </wgt>
<wgt id='1983'> +3.9835962E-01 </wgt>
<wgt id='1984'> +3.9715490E-01 </wgt>
<wgt id='1985'> +4.0011209E-01 </wgt>
<wgt id='1986'> +4.1911748E-01 </wgt>
<wgt id='1987'> +4.0068987E-01 </wgt>
<wgt id='1988'> +3.9878295E-01 </wgt>
<wgt id='1989'> +3.9299997E-01 </wgt>
<wgt id='1990'> +4.0250334E-01 </wgt>
<wgt id='1991'> +4.1001201E-01 </wgt>
<wgt id='1992'> +4.1412049E-01 </wgt>
<wgt id='1993'> +4.1454723E-01 </wgt>
<wgt id='1994'> +4.0868782E-01 </wgt>
<wgt id='1995'> +4.0833123E-01 </wgt>
<wgt id='1996'> +3.9605042E-01 </wgt>
<wgt id='1997'> +4.0247780E-01 </wgt>
<wgt id='1998'> +4.1030644E-01 </wgt>
<wgt id='1999'> +3.9713942E-01 </wgt>
<wgt id='2000'> +4.0332269E-01 </wgt>
<wgt id='2001'> +4.0677766E-01 </wgt>
<wgt id='2002'> +4.0147846E-01 </wgt>
<wgt id='2003'> +4.0455432E-01 </wgt>
<wgt id='2004'> +4.0824919E-01 </wgt>
<wgt id='2005'> +4.0079655E-01 </wgt>
<wgt id='2006'> +4.0818737E-01 </wgt>
<wgt id='2007'> +4.0990070E-01 </wgt>
<wgt id='2008'> +3.9926126E-01 </wgt>
<wgt id='2009'> +4.0066222E-01 </wgt>
<wgt id='2010'> +4.0223896E-01 </wgt>
<wgt id='2011'> +4.0165946E-01 </wgt>
<wgt id='2012'> +4.0474938E-01 </wgt>
<wgt id='2013'> +4.1020636E-01 </wgt>
<wgt id='2014'> +4.0153775E-01 </wgt>
<wgt id='2015'> +3.9818812E-01 </wgt>
<wgt id='2016'> +4.0314440E-01 </wgt>
<wgt id='2017'> +4.0282036E-01 </wgt>
<wgt id='2018'> +4.0536719E-01 </wgt>
<wgt id='2019'> +3.9594680E-01 </wgt>
<wgt id='2020'> +4.0412803E-01 </wgt>
<wgt id='2021'> +4.0543414E-01 </wgt>
<wgt id='2022'> +4.0233180E-01 </wgt>
</rwgt>
</event>
<event>
13      1 +3.9556008E-01 1.62665400e+02 7.81860800e-03 1.08495200e-01
       21 -1    0    0  502  503 +0.0000000000e+00 +0.0000000000e+00 +1.4459353321e+02 1.4459353321e+02 0.0000000000e+00 0.0000e+00 -1.0000e+00
        2 -1    0    0  501    0 +0.0000000000e+00 +0.0000000000e+00 -1.8440163973e+03 1.8440163973e+03 2.5500000000e-03 0.0000e+00 -1.0000e+00
  8000001  2    1    2  502    0 +1.6056959683e+02 +5.0556062177e+01 -1.0077025277e+03 1.1848219221e+03 6.0000007654e+02 0.0000e+00 0.0000e+00
        1  1    1    2  501    0 -1.5679036760e+02 -4.1224065975e+01 -7.3830742580e+02 7.5589714777e+02 5.0400000000e-03 0.0000e+00 -1.0000e+00
       -5  1    1    2    0  503 -3.7792292249e+00 -9.3319962022e+00 +4.6587089458e+01 4.7890860626e+01 4.6700000000e+00 0.0000e+00 1.0000e+00
        6  2    3    3  502    0 +9.8396619326e+00 +2.1702376133e+02 -2.0298132313e+02 3.4423704636e+02 1.7349811128e+02 0.0000e+00 0.0000e+00
        5  1    6    6  502    0 -2.1527932815e+01 +1.0383621603e+01 +1.7239576392e+01 2.9837616925e+01 4.6700000000e+00 0.0000e+00 -1.0000e+00
       24  2    6    6    0    0 +3.1367594747e+01 +2.0664013973e+02 -2.2022089952e+02 3.1439942944e+02 8.1643635973e+01 0.0000e+00 0.0000e+00
       14  1    8    8    0    0 +4.0504680271e+01 +8.3567491590e+01 -5.4172554180e+01 1.0751195469e+02 0.0000000000e+00 0.0000e+00 -1.0000e+00
      -13  1    8    8    0    0 -9.1370855238e+00 +1.2307264814e+02 -1.6604834534e+02 2.0688747475e+02 1.0566000000e-01 0.0000e+00 1.0000e+00
       23  2    3    3    0    0 +1.5072993490e+02 -1.6646769915e+02 -8.0472120462e+02 8.4058487576e+02 9.2605118936e+01 0.0000e+00 0.0000e+00
        2  1   11   11  504    0 +1.0875343604e+02 -1.5285421590e+02 -5.2729899597e+02 5.5967486304e+02 2.5500000000e-03 0.0000e+00 -1.0000e+00
       -2  1   11   11    0  504 +4.1976498856e+01 -1.3613483252e+01 -2.7742220865e+02 2.8091001271e+02 2.5500000000e-03 0.0000e+00 1.0000e+00
<mgrwt>
<rscale>  1 0.11623908e+03</rscale>
<asrwt>0</asrwt>
<pdfrwt beam="1">  1       21 0.22245159e-01 0.83063291e+02</pdfrwt>
<pdfrwt beam="2">  1        2 0.28369483e+00 0.16266541e+03</pdfrwt>
<totfact> 0.26172850e+03</totfact>
</mgrwt>
<rwgt>
<wgt id='1001'> +3.9556008E-01 </wgt>
<wgt id='1002'> +2.7690011E-01 </wgt>
<wgt id='1003'> +2.7679903E-01 </wgt>
<wgt id='1004'> +3.2160974E-01 </wgt>
<wgt id='1005'> +2.5141240E-01 </wgt>
<wgt id='1006'> +3.5792500E-01 </wgt>
<wgt id='1007'> +2.5576695E-01 </wgt>
<wgt id='1008'> +2.5567786E-01 </wgt>
<wgt id='1009'> +2.9494017E-01 </wgt>
<wgt id='1010'> +2.3320939E-01 </wgt>
<wgt id='1011'> +4.4236507E-01 </wgt>
<wgt id='1012'> +3.0194452E-01 </wgt>
<wgt id='1013'> +3.0182822E-01 </wgt>
<wgt id='1014'> +3.5374101E-01 </wgt>
<wgt id='1015'> +2.7277519E-01 </wgt>
<wgt id='1016'> +3.7279729E-01 </wgt>
<wgt id='1017'> +2.6043809E-01 </wgt>
<wgt id='1018'> +2.6034348E-01 </wgt>
<wgt id='1019'> +3.0182822E-01 </wgt>
<wgt id='1020'> +2.3671620E-01 </wgt>
<wgt id='1021'> +3.3732796E-01 </wgt>
<wgt id='1022'> +2.4056131E-01 </wgt>
<wgt id='1023'> +2.4047795E-01 </wgt>
<wgt id='1024'> +2.7679903E-01 </wgt>
<wgt id='1025'> +2.1957723E-01 </wgt>
<wgt id='1026'> +4.1690886E-01 </wgt>
<wgt id='1027'> +2.8399358E-01 </wgt>
<wgt id='1028'> +2.8388469E-01 </wgt>
<wgt id='1029'> +3.3198315E-01 </wgt>
<wgt id='1030'> +2.5683024E-01 </wgt>
<wgt id='1031'> +4.1862848E-01 </wgt>
<wgt id='1032'> +2.9505005E-01 </wgt>
<wgt id='1033'> +2.9494017E-01 </wgt>
<wgt id='1034'> +3.4296248E-01 </wgt>
<wgt id='1035'> +2.6745965E-01 </wgt>
<wgt id='1036'> +3.7879858E-01 </wgt>
<wgt id='1037'> +2.7253167E-01 </wgt>
<wgt id='1038'> +2.7243475E-01 </wgt>
<wgt id='1039'> +3.1452223E-01 </wgt>
<wgt id='1040'> +2.4809478E-01 </wgt>
<wgt id='1041'> +4.6816304E-01 </wgt>
<wgt id='1042'> +3.2173604E-01 </wgt>
<wgt id='1043'> +3.2160974E-01 </wgt>
<wgt id='1044'> +3.7722705E-01 </wgt>
<wgt id='1045'> +2.9018601E-01 </wgt>
<wgt id='1046'> +3.9556008E-01 </wgt>
<wgt id='1047'> +3.9556008E-01 </wgt>
<wgt id='1048'> +3.9556008E-01 </wgt>
<wgt id='1049'> +3.9581403E-01 </wgt>
<wgt id='1050'> +3.9497101E-01 </wgt>
<wgt id='1051'> +3.9616128E-01 </wgt>
<wgt id='1052'> +3.9496226E-01 </wgt>
<wgt id='1053'> +3.9743657E-01 </wgt>
<wgt id='1054'> +3.9577868E-01 </wgt>
<wgt id='1055'> +3.9647376E-01 </wgt>
<wgt id='1056'> +3.9705745E-01 </wgt>
<wgt id='1057'> +3.9484786E-01 </wgt>
<wgt id='1058'> +3.9553319E-01 </wgt>
<wgt id='1059'> +3.9336673E-01 </wgt>
<wgt id='1060'> +3.9594043E-01 </wgt>
<wgt id='1061'> +3.9548677E-01 </wgt>
<wgt id='1062'> +3.9601445E-01 </wgt>
<wgt id='1063'> +3.9502277E-01 </wgt>
<wgt id='1064'> +3.9499697E-01 </wgt>
<wgt id='1065'> +3.9532034E-01 </wgt>
<wgt id='1066'> +3.9584878E-01 </wgt>
<wgt id='1067'> +3.9684935E-01 </wgt>
<wgt id='1068'> +3.9408782E-01 </wgt>
<wgt id='1069'> +3.9652734E-01 </wgt>
<wgt id='1070'> +3.9574851E-01 </wgt>
<wgt id='1071'> +3.9552950E-01 </wgt>
<wgt id='1072'> +3.9640300E-01 </wgt>
<wgt id='1073'> +3.9526370E-01 </wgt>
<wgt id='1074'> +3.9616401E-01 </wgt>
<wgt id='1075'> +3.9386284E-01 </wgt>
<wgt id='1076'> +3.9682911E-01 </wgt>
<wgt id='1077'> +3.9725556E-01 </wgt>
<wgt id='1078'> +3.9493760E-01 </wgt>
<wgt id='1079'> +3.9774963E-01 </wgt>
<wgt id='1080'> +3.9724561E-01 </wgt>
<wgt id='1081'> +3.9602681E-01 </wgt>
<wgt id='1082'> +3.9646045E-01 </wgt>
<wgt id='1083'> +3.9491099E-01 </wgt>
<wgt id='1084'> +3.9421948E-01 </wgt>
<wgt id='1085'> +3.9628701E-01 </wgt>
<wgt id='1086'> +3.9486118E-01 </wgt>
<wgt id='1087'> +3.9566532E-01 </wgt>
<wgt id='1088'> +3.9533852E-01 </wgt>
<wgt id='1089'> +3.9510633E-01 </wgt>
<wgt id='1090'> +3.9512857E-01 </wgt>
<wgt id='1091'> +3.9468391E-01 </wgt>
<wgt id='1092'> +3.9511478E-01 </wgt>
<wgt id='1093'> +3.9555427E-01 </wgt>
<wgt id='1094'> +3.9601237E-01 </wgt>
<wgt id='1095'> +3.9479304E-01 </wgt>
<wgt id='1096'> +3.9525809E-01 </wgt>
<wgt id='1097'> +3.9543742E-01 </wgt>
<wgt id='1098'> +3.9548147E-01 </wgt>
<wgt id='1099'> +3.9572975E-01 </wgt>
<wgt id='1100'> +3.9577222E-01 </wgt>
<wgt id='1101'> +3.9533301E-01 </wgt>
<wgt id='1102'> +3.9520781E-01 </wgt>
<wgt id='1103'> +3.9608855E-01 </wgt>
<wgt id='1104'> +3.9567986E-01 </wgt>
<wgt id='1105'> +3.9545519E-01 </wgt>
<wgt id='1106'> +3.9582717E-01 </wgt>
<wgt id='1107'> +3.9502937E-01 </wgt>
<wgt id='1108'> +3.9564963E-01 </wgt>
<wgt id='1109'> +3.9612098E-01 </wgt>
<wgt id='1110'> +3.9557255E-01 </wgt>
<wgt id='1111'> +3.9519031E-01 </wgt>
<wgt id='1112'> +3.9600885E-01 </wgt>
<wgt id='1113'> +3.9498444E-01 </wgt>
<wgt id='1114'> +3.9461218E-01 </wgt>
<wgt id='1115'> +3.9605981E-01 </wgt>
<wgt id='1116'> +3.9580472E-01 </wgt>
<wgt id='1117'> +3.9600711E-01 </wgt>
<wgt id='1118'> +3.9569184E-01 </wgt>
<wgt id='1119'> +3.9605788E-01 </wgt>
<wgt id='1120'> +3.9525776E-01 </wgt>
<wgt id='1121'> +3.9596739E-01 </wgt>
<wgt id='1122'> +3.9592944E-01 </wgt>
<wgt id='1123'> +3.9577940E-01 </wgt>
<wgt id='1124'> +3.9528671E-01 </wgt>
<wgt id='1125'> +3.9540344E-01 </wgt>
<wgt id='1126'> +3.9569599E-01 </wgt>
<wgt id='1127'> +3.9541040E-01 </wgt>
<wgt id='1128'> +3.9559062E-01 </wgt>
<wgt id='1129'> +3.9530023E-01 </wgt>
<wgt id='1130'> +3.9569206E-01 </wgt>
<wgt id='1131'> +3.9565343E-01 </wgt>
<wgt id='1132'> +3.9559536E-01 </wgt>
<wgt id='1133'> +3.9565934E-01 </wgt>
<wgt id='1134'> +3.9535723E-01 </wgt>
<wgt id='1135'> +3.9566274E-01 </wgt>
<wgt id='1136'> +3.9579566E-01 </wgt>
<wgt id='1137'> +3.9544638E-01 </wgt>
<wgt id='1138'> +3.9577051E-01 </wgt>
<wgt id='1139'> +3.9563952E-01 </wgt>
<wgt id='1140'> +3.9584184E-01 </wgt>
<wgt id='1141'> +3.9543710E-01 </wgt>
<wgt id='1142'> +3.9568355E-01 </wgt>
<wgt id='1143'> +3.9570008E-01 </wgt>
<wgt id='1144'> +3.9548982E-01 </wgt>
<wgt id='1145'> +3.9549448E-01 </wgt>
<wgt id='1146'> +3.9560559E-01 </wgt>
<wgt id='1147'> +3.9565722E-01 </wgt>
<wgt id='1148'> +3.9556008E-01 </wgt>
<wgt id='1149'> +3.8625785E-01 </wgt>
<wgt id='1150'> +3.7906975E-01 </wgt>
<wgt id='1151'> +3.8404080E-01 </wgt>
<wgt id='1152'> +3.9091188E-01 </wgt>
<wgt id='1153'> +3.8109428E-01 </wgt>
<wgt id='1154'> +3.8679701E-01 </wgt>
<wgt id='1155'> +3.8615954E-01 </wgt>
<wgt id='1156'> +3.8533900E-01 </wgt>
<wgt id='1157'> +3.9118815E-01 </wgt>
<wgt id='1158'> +3.9448571E-01 </wgt>
<wgt id='1159'> +3.6880020E-01 </wgt>
<wgt id='1160'> +3.8314116E-01 </wgt>
<wgt id='1161'> +3.8866146E-01 </wgt>
<wgt id='1162'> +3.7674878E-01 </wgt>
<wgt id='1163'> +3.8662930E-01 </wgt>
<wgt id='1164'> +3.9882139E-01 </wgt>
<wgt id='1165'> +3.9080344E-01 </wgt>
<wgt id='1166'> +3.9441321E-01 </wgt>
<wgt id='1167'> +3.8778712E-01 </wgt>
<wgt id='1168'> +3.8552890E-01 </wgt>
<wgt id='1169'> +3.8488691E-01 </wgt>
<wgt id='1170'> +3.9137971E-01 </wgt>
<wgt id='1171'> +3.9157498E-01 </wgt>
<wgt id='1172'> +3.9252900E-01 </wgt>
<wgt id='1173'> +3.8016518E-01 </wgt>
<wgt id='1174'> +3.9441212E-01 </wgt>
<wgt id='1175'> +3.8907513E-01 </wgt>
<wgt id='1176'> +3.7582271E-01 </wgt>
<wgt id='1177'> +3.8590548E-01 </wgt>
<wgt id='1178'> +3.8957236E-01 </wgt>
<wgt id='1179'> +3.8250134E-01 </wgt>
<wgt id='1180'> +3.9403910E-01 </wgt>
<wgt id='1181'> +3.8446031E-01 </wgt>
<wgt id='1182'> +3.9075080E-01 </wgt>
<wgt id='1183'> +3.8183750E-01 </wgt>
<wgt id='1184'> +3.8787934E-01 </wgt>
<wgt id='1185'> +3.8891831E-01 </wgt>
<wgt id='1186'> +3.8419700E-01 </wgt>
<wgt id='1187'> +3.8518900E-01 </wgt>
<wgt id='1188'> +3.7753087E-01 </wgt>
<wgt id='1189'> +3.8825404E-01 </wgt>
<wgt id='1190'> +3.8811526E-01 </wgt>
<wgt id='1191'> +3.7929936E-01 </wgt>
<wgt id='1192'> +3.8201172E-01 </wgt>
<wgt id='1193'> +3.8433787E-01 </wgt>
<wgt id='1194'> +3.8584355E-01 </wgt>
<wgt id='1195'> +3.8434452E-01 </wgt>
<wgt id='1196'> +3.7624046E-01 </wgt>
<wgt id='1197'> +3.8029464E-01 </wgt>
<wgt id='1198'> +3.9088950E-01 </wgt>
<wgt id='1199'> +3.8887798E-01 </wgt>
<wgt id='1200'> +3.8641131E-01 </wgt>
<wgt id='1201'> +3.9016243E-01 </wgt>
<wgt id='1202'> +3.8463347E-01 </wgt>
<wgt id='1203'> +3.9369881E-01 </wgt>
<wgt id='1204'> +3.8875023E-01 </wgt>
<wgt id='1205'> +3.8058620E-01 </wgt>
<wgt id='1206'> +3.8917164E-01 </wgt>
<wgt id='1207'> +3.8696785E-01 </wgt>
<wgt id='1208'> +3.9724513E-01 </wgt>
<wgt id='1209'> +3.9686142E-01 </wgt>
<wgt id='1210'> +3.7933359E-01 </wgt>
<wgt id='1211'> +3.8655246E-01 </wgt>
<wgt id='1212'> +3.8171877E-01 </wgt>
<wgt id='1213'> +3.9172054E-01 </wgt>
<wgt id='1214'> +3.9334565E-01 </wgt>
<wgt id='1215'> +3.7904132E-01 </wgt>
<wgt id='1216'> +3.8277574E-01 </wgt>
<wgt id='1217'> +3.8430400E-01 </wgt>
<wgt id='1218'> +3.8151940E-01 </wgt>
<wgt id='1219'> +3.8026199E-01 </wgt>
<wgt id='1220'> +3.9316552E-01 </wgt>
<wgt id='1221'> +3.7666315E-01 </wgt>
<wgt id='1222'> +3.9115399E-01 </wgt>
<wgt id='1223'> +3.9068374E-01 </wgt>
<wgt id='1224'> +3.8053920E-01 </wgt>
<wgt id='1225'> +3.9345705E-01 </wgt>
<wgt id='1226'> +3.7726460E-01 </wgt>
<wgt id='1227'> +3.9981323E-01 </wgt>
<wgt id='1228'> +3.8800485E-01 </wgt>
<wgt id='1229'> +3.6808099E-01 </wgt>
<wgt id='1230'> +3.8287865E-01 </wgt>
<wgt id='1231'> +3.9080344E-01 </wgt>
<wgt id='1232'> +3.7965650E-01 </wgt>
<wgt id='1233'> +3.8840583E-01 </wgt>
<wgt id='1234'> +3.9526304E-01 </wgt>
<wgt id='1235'> +3.7044509E-01 </wgt>
<wgt id='1236'> +3.9644540E-01 </wgt>
<wgt id='1237'> +3.8107630E-01 </wgt>
<wgt id='1238'> +3.8192372E-01 </wgt>
<wgt id='1239'> +3.9126173E-01 </wgt>
<wgt id='1240'> +3.9498863E-01 </wgt>
<wgt id='1241'> +3.9514004E-01 </wgt>
<wgt id='1242'> +3.8999764E-01 </wgt>
<wgt id='1243'> +3.8317656E-01 </wgt>
<wgt id='1244'> +3.8225316E-01 </wgt>
<wgt id='1245'> +3.9225439E-01 </wgt>
<wgt id='1246'> +3.7378288E-01 </wgt>
<wgt id='1247'> +3.8297096E-01 </wgt>
<wgt id='1248'> +3.8669715E-01 </wgt>
<wgt id='1249'> +3.8975385E-01 </wgt>
<wgt id='1250'> +3.9003206E-01 </wgt>
<wgt id='1251'> +3.8589511E-01 </wgt>
<wgt id='1252'> +3.9059773E-01 </wgt>
<wgt id='1253'> +3.9189676E-01 </wgt>
<wgt id='1254'> +3.7400092E-01 </wgt>
<wgt id='1255'> +4.1629098E-01 </wgt>
<wgt id='1256'> +4.1919119E-01 </wgt>
<wgt id='1257'> +4.1459707E-01 </wgt>
<wgt id='1258'> +4.1586607E-01 </wgt>
<wgt id='1259'> +4.1649866E-01 </wgt>
<wgt id='1260'> +4.1724279E-01 </wgt>
<wgt id='1261'> +4.1500619E-01 </wgt>
<wgt id='1262'> +4.1697344E-01 </wgt>
<wgt id='1263'> +4.1584195E-01 </wgt>
<wgt id='1264'> +4.1568679E-01 </wgt>
<wgt id='1265'> +4.1670166E-01 </wgt>
<wgt id='1266'> +4.1633017E-01 </wgt>
<wgt id='1267'> +4.1625025E-01 </wgt>
<wgt id='1268'> +4.1920694E-01 </wgt>
<wgt id='1269'> +4.1334110E-01 </wgt>
<wgt id='1270'> +4.1638391E-01 </wgt>
<wgt id='1271'> +4.1563614E-01 </wgt>
<wgt id='1272'> +4.1722299E-01 </wgt>
<wgt id='1273'> +4.1556154E-01 </wgt>
<wgt id='1274'> +4.1501254E-01 </wgt>
<wgt id='1275'> +4.1789500E-01 </wgt>
<wgt id='1276'> +4.1494198E-01 </wgt>
<wgt id='1277'> +4.1768091E-01 </wgt>
<wgt id='1278'> +4.1472401E-01 </wgt>
<wgt id='1279'> +4.1758194E-01 </wgt>
<wgt id='1280'> +4.1647539E-01 </wgt>
<wgt id='1281'> +4.1571687E-01 </wgt>
<wgt id='1282'> +4.1903766E-01 </wgt>
<wgt id='1283'> +4.1305625E-01 </wgt>
<wgt id='1284'> +4.1471536E-01 </wgt>
<wgt id='1285'> +4.1779986E-01 </wgt>
<wgt id='1286'> +4.1840971E-01 </wgt>
<wgt id='1287'> +4.1616851E-01 </wgt>
<wgt id='1288'> +4.1596114E-01 </wgt>
<wgt id='1289'> +4.1637964E-01 </wgt>
<wgt id='1290'> +4.1687867E-01 </wgt>
<wgt id='1291'> +4.1608904E-01 </wgt>
<wgt id='1292'> +4.1745665E-01 </wgt>
<wgt id='1293'> +4.1404937E-01 </wgt>
<wgt id='1294'> +4.1349282E-01 </wgt>
<wgt id='1295'> +4.1721653E-01 </wgt>
<wgt id='1296'> +3.9232466E-01 </wgt>
<wgt id='1297'> +3.9324193E-01 </wgt>
<wgt id='1298'> +3.9157641E-01 </wgt>
<wgt id='1299'> +3.9093587E-01 </wgt>
<wgt id='1300'> +3.9386656E-01 </wgt>
<wgt id='1301'> +3.9144091E-01 </wgt>
<wgt id='1302'> +3.9362572E-01 </wgt>
<wgt id='1303'> +3.9224576E-01 </wgt>
<wgt id='1304'> +3.9237364E-01 </wgt>
<wgt id='1305'> +3.9269531E-01 </wgt>
<wgt id='1306'> +3.9179776E-01 </wgt>
<wgt id='1307'> +3.9412779E-01 </wgt>
<wgt id='1308'> +3.9119318E-01 </wgt>
<wgt id='1309'> +3.9294822E-01 </wgt>
<wgt id='1310'> +3.9147289E-01 </wgt>
<wgt id='1311'> +3.9495142E-01 </wgt>
<wgt id='1312'> +3.9136681E-01 </wgt>
<wgt id='1313'> +3.9386139E-01 </wgt>
<wgt id='1314'> +3.9012551E-01 </wgt>
<wgt id='1315'> +3.9167894E-01 </wgt>
<wgt id='1316'> +3.9293250E-01 </wgt>
<wgt id='1317'> +3.8902451E-01 </wgt>
<wgt id='1318'> +3.9830937E-01 </wgt>
<wgt id='1319'> +3.9362054E-01 </wgt>
<wgt id='1320'> +3.9165775E-01 </wgt>
<wgt id='1321'> +3.9202697E-01 </wgt>
<wgt id='1322'> +3.9254094E-01 </wgt>
<wgt id='1323'> +3.9285415E-01 </wgt>
<wgt id='1324'> +3.9186578E-01 </wgt>
<wgt id='1325'> +3.9250219E-01 </wgt>
<wgt id='1326'> +3.9224232E-01 </wgt>
<wgt id='1327'> +3.9270543E-01 </wgt>
<wgt id='1328'> +3.9219104E-01 </wgt>
<wgt id='1329'> +3.9241803E-01 </wgt>
<wgt id='1330'> +3.9225344E-01 </wgt>
<wgt id='1331'> +3.9273442E-01 </wgt>
<wgt id='1332'> +3.9267145E-01 </wgt>
<wgt id='1333'> +3.9348284E-01 </wgt>
<wgt id='1334'> +3.8946264E-01 </wgt>
<wgt id='1335'> +3.9332559E-01 </wgt>
<wgt id='1336'> +3.9211078E-01 </wgt>
<wgt id='1337'> +3.9232466E-01 </wgt>
<wgt id='1338'> +3.9220895E-01 </wgt>
<wgt id='1339'> +3.9225847E-01 </wgt>
<wgt id='1340'> +3.9230858E-01 </wgt>
<wgt id='1341'> +3.9239315E-01 </wgt>
<wgt id='1342'> +3.9243297E-01 </wgt>
<wgt id='1343'> +3.9244772E-01 </wgt>
<wgt id='1344'> +3.8993238E-01 </wgt>
<wgt id='1345'> +3.9115054E-01 </wgt>
<wgt id='1346'> +3.8872246E-01 </wgt>
<wgt id='1347'> +3.9244846E-01 </wgt>
<wgt id='1348'> +3.8808037E-01 </wgt>
<wgt id='1349'> +3.8958818E-01 </wgt>
<wgt id='1350'> +3.9023299E-01 </wgt>
<wgt id='1351'> +3.8994732E-01 </wgt>
<wgt id='1352'> +3.8991444E-01 </wgt>
<wgt id='1353'> +3.9088727E-01 </wgt>
<wgt id='1354'> +3.8927501E-01 </wgt>
<wgt id='1355'> +3.8885122E-01 </wgt>
<wgt id='1356'> +3.9077408E-01 </wgt>
<wgt id='1357'> +3.8994422E-01 </wgt>
<wgt id='1358'> +3.8991483E-01 </wgt>
<wgt id='1359'> +3.8887377E-01 </wgt>
<wgt id='1360'> +3.9256052E-01 </wgt>
<wgt id='1361'> +3.9404776E-01 </wgt>
<wgt id='1362'> +3.8674806E-01 </wgt>
<wgt id='1363'> +3.9114516E-01 </wgt>
<wgt id='1364'> +3.8850224E-01 </wgt>
<wgt id='1365'> +3.8981341E-01 </wgt>
<wgt id='1366'> +3.9007131E-01 </wgt>
<wgt id='1367'> +3.8917415E-01 </wgt>
<wgt id='1368'> +3.9038029E-01 </wgt>
<wgt id='1369'> +3.8843008E-01 </wgt>
<wgt id='1370'> +3.9138730E-01 </wgt>
<wgt id='1371'> +3.8996180E-01 </wgt>
<wgt id='1372'> +3.9016580E-01 </wgt>
<wgt id='1373'> +3.9042074E-01 </wgt>
<wgt id='1374'> +3.8931616E-01 </wgt>
<wgt id='1375'> +3.9061142E-01 </wgt>
<wgt id='1376'> +3.8972875E-01 </wgt>
<wgt id='1377'> +3.9000346E-01 </wgt>
<wgt id='1378'> +3.8973948E-01 </wgt>
<wgt id='1379'> +3.9082828E-01 </wgt>
<wgt id='1380'> +3.9008199E-01 </wgt>
<wgt id='1381'> +3.8904105E-01 </wgt>
<wgt id='1382'> +3.8876379E-01 </wgt>
<wgt id='1383'> +3.8981550E-01 </wgt>
<wgt id='1384'> +3.9065564E-01 </wgt>
<wgt id='1385'> +3.8993238E-01 </wgt>
<wgt id='1386'> +3.8963022E-01 </wgt>
<wgt id='1387'> +3.8973233E-01 </wgt>
<wgt id='1388'> +3.8983324E-01 </wgt>
<wgt id='1389'> +3.8998869E-01 </wgt>
<wgt id='1390'> +3.9006919E-01 </wgt>
<wgt id='1391'> +3.9014000E-01 </wgt>
<wgt id='1392'> +4.1075978E-01 </wgt>
<wgt id='1393'> +4.1079217E-01 </wgt>
<wgt id='1394'> +4.1073056E-01 </wgt>
<wgt id='1395'> +4.1096878E-01 </wgt>
<wgt id='1396'> +4.1061249E-01 </wgt>
<wgt id='1397'> +4.1219470E-01 </wgt>
<wgt id='1398'> +4.0937386E-01 </wgt>
<wgt id='1399'> +4.1253379E-01 </wgt>
<wgt id='1400'> +4.0856771E-01 </wgt>
<wgt id='1401'> +4.0940109E-01 </wgt>
<wgt id='1402'> +4.1242727E-01 </wgt>
<wgt id='1403'> +4.1048223E-01 </wgt>
<wgt id='1404'> +4.1130975E-01 </wgt>
<wgt id='1405'> +4.1026936E-01 </wgt>
<wgt id='1406'> +4.1145185E-01 </wgt>
<wgt id='1407'> +4.1003943E-01 </wgt>
<wgt id='1408'> +4.1125613E-01 </wgt>
<wgt id='1409'> +4.1178020E-01 </wgt>
<wgt id='1410'> +4.0957102E-01 </wgt>
<wgt id='1411'> +4.1059298E-01 </wgt>
<wgt id='1412'> +4.1089003E-01 </wgt>
<wgt id='1413'> +4.1276909E-01 </wgt>
<wgt id='1414'> +4.0864264E-01 </wgt>
<wgt id='1415'> +4.1198396E-01 </wgt>
<wgt id='1416'> +4.0938765E-01 </wgt>
<wgt id='1417'> +4.1150117E-01 </wgt>
<wgt id='1418'> +4.0978916E-01 </wgt>
<wgt id='1419'> +4.1120690E-01 </wgt>
<wgt id='1420'> +4.1058497E-01 </wgt>
<wgt id='1421'> +4.1340707E-01 </wgt>
<wgt id='1422'> +4.0776330E-01 </wgt>
<wgt id='1423'> +4.1252383E-01 </wgt>
<wgt id='1424'> +4.0917702E-01 </wgt>
<wgt id='1425'> +4.1077600E-01 </wgt>
<wgt id='1426'> +4.1070818E-01 </wgt>
<wgt id='1427'> +4.0982345E-01 </wgt>
<wgt id='1428'> +4.1111040E-01 </wgt>
<wgt id='1429'> +4.1059138E-01 </wgt>
<wgt id='1430'> +4.1100196E-01 </wgt>
<wgt id='1431'> +4.1069108E-01 </wgt>
<wgt id='1432'> +4.1069947E-01 </wgt>
<wgt id='1433'> +4.0921481E-01 </wgt>
<wgt id='1434'> +4.1211640E-01 </wgt>
<wgt id='1435'> +4.1073873E-01 </wgt>
<wgt id='1436'> +4.1130586E-01 </wgt>
<wgt id='1437'> +4.1048102E-01 </wgt>
<wgt id='1438'> +4.1142132E-01 </wgt>
<wgt id='1439'> +4.1143505E-01 </wgt>
<wgt id='1440'> +4.0813387E-01 </wgt>
<wgt id='1441'> +4.1124520E-01 </wgt>
<wgt id='1442'> +4.1123180E-01 </wgt>
<wgt id='1443'> +4.0947848E-01 </wgt>
<wgt id='1444'> +4.0953219E-01 </wgt>
<wgt id='1445'> +4.0942633E-01 </wgt>
<wgt id='1446'> +4.0970119E-01 </wgt>
<wgt id='1447'> +4.0933219E-01 </wgt>
<wgt id='1448'> +4.1102395E-01 </wgt>
<wgt id='1449'> +4.0805143E-01 </wgt>
<wgt id='1450'> +4.1119437E-01 </wgt>
<wgt id='1451'> +4.0757561E-01 </wgt>
<wgt id='1452'> +4.0816533E-01 </wgt>
<wgt id='1453'> +4.1075667E-01 </wgt>
<wgt id='1454'> +4.0912500E-01 </wgt>
<wgt id='1455'> +4.1026479E-01 </wgt>
<wgt id='1456'> +4.0887119E-01 </wgt>
<wgt id='1457'> +4.1057588E-01 </wgt>
<wgt id='1458'> +4.0881943E-01 </wgt>
<wgt id='1459'> +4.0985530E-01 </wgt>
<wgt id='1460'> +4.1046461E-01 </wgt>
<wgt id='1461'> +4.0829500E-01 </wgt>
<wgt id='1462'> +4.0911631E-01 </wgt>
<wgt id='1463'> +4.0979269E-01 </wgt>
<wgt id='1464'> +4.1123898E-01 </wgt>
<wgt id='1465'> +4.0718585E-01 </wgt>
<wgt id='1466'> +4.1087874E-01 </wgt>
<wgt id='1467'> +4.0836437E-01 </wgt>
<wgt id='1468'> +4.0785661E-01 </wgt>
<wgt id='1469'> +4.1109916E-01 </wgt>
<wgt id='1470'> +4.0995064E-01 </wgt>
<wgt id='1471'> +4.0931907E-01 </wgt>
<wgt id='1472'> +4.1168272E-01 </wgt>
<wgt id='1473'> +4.0690218E-01 </wgt>
<wgt id='1474'> +4.1077365E-01 </wgt>
<wgt id='1475'> +4.0777758E-01 </wgt>
<wgt id='1476'> +4.0929396E-01 </wgt>
<wgt id='1477'> +4.0958754E-01 </wgt>
<wgt id='1478'> +4.0862900E-01 </wgt>
<wgt id='1479'> +4.0990447E-01 </wgt>
<wgt id='1480'> +4.0946197E-01 </wgt>
<wgt id='1481'> +4.0965485E-01 </wgt>
<wgt id='1482'> +4.0936010E-01 </wgt>
<wgt id='1483'> +4.0947981E-01 </wgt>
<wgt id='1484'> +4.0790344E-01 </wgt>
<wgt id='1485'> +4.1093009E-01 </wgt>
<wgt id='1486'> +4.0953114E-01 </wgt>
<wgt id='1487'> +4.0993592E-01 </wgt>
<wgt id='1488'> +4.0916056E-01 </wgt>
<wgt id='1489'> +4.1019613E-01 </wgt>
<wgt id='1490'> +4.1063184E-01 </wgt>
<wgt id='1491'> +4.0663456E-01 </wgt>
<wgt id='1492'> +4.1020695E-01 </wgt>
<wgt id='1493'> +4.0996303E-01 </wgt>
<wgt id='1494'> +3.9210342E-01 </wgt>
<wgt id='1495'> +3.9069269E-01 </wgt>
<wgt id='1496'> +3.9122737E-01 </wgt>
<wgt id='1497'> +3.9175915E-01 </wgt>
<wgt id='1498'> +3.9213033E-01 </wgt>
<wgt id='1499'> +3.9198628E-01 </wgt>
<wgt id='1500'> +3.9430807E-01 </wgt>
<wgt id='1501'> +3.9382835E-01 </wgt>
<wgt id='1502'> +3.9336827E-01 </wgt>
<wgt id='1503'> +3.9290679E-01 </wgt>
<wgt id='1504'> +3.9245825E-01 </wgt>
<wgt id='1505'> +3.9158968E-01 </wgt>
<wgt id='1506'> +3.9117899E-01 </wgt>
<wgt id='1507'> +3.9080640E-01 </wgt>
<wgt id='1508'> +3.9198628E-01 </wgt>
<wgt id='1509'> +3.9212099E-01 </wgt>
<wgt id='1510'> +3.9203892E-01 </wgt>
<wgt id='1511'> +3.9193859E-01 </wgt>
<wgt id='1512'> +3.9184313E-01 </wgt>
<wgt id='1513'> +3.9173480E-01 </wgt>
<wgt id='1514'> +3.9159202E-01 </wgt>
<wgt id='1515'> +3.9192558E-01 </wgt>
<wgt id='1516'> +3.9246500E-01 </wgt>
<wgt id='1517'> +3.9102424E-01 </wgt>
<wgt id='1518'> +3.9239747E-01 </wgt>
<wgt id='1519'> +3.9147017E-01 </wgt>
<wgt id='1520'> +3.9411665E-01 </wgt>
<wgt id='1521'> +3.8936607E-01 </wgt>
<wgt id='1522'> +3.9103192E-01 </wgt>
<wgt id='1523'> +3.9241842E-01 </wgt>
<wgt id='1524'> +3.9329290E-01 </wgt>
<wgt id='1525'> +3.9105713E-01 </wgt>
<wgt id='1526'> +3.9190053E-01 </wgt>
<wgt id='1527'> +3.9154558E-01 </wgt>
<wgt id='1528'> +3.9079541E-01 </wgt>
<wgt id='1529'> +3.9275283E-01 </wgt>
<wgt id='1530'> +3.9406709E-01 </wgt>
<wgt id='1531'> +3.9041400E-01 </wgt>
<wgt id='1532'> +3.9221959E-01 </wgt>
<wgt id='1533'> +3.9106935E-01 </wgt>
<wgt id='1534'> +3.9024820E-01 </wgt>
<wgt id='1535'> +3.9278853E-01 </wgt>
<wgt id='1536'> +3.9070479E-01 </wgt>
<wgt id='1537'> +3.9273551E-01 </wgt>
<wgt id='1538'> +3.9157582E-01 </wgt>
<wgt id='1539'> +3.9194721E-01 </wgt>
<wgt id='1540'> +3.9200490E-01 </wgt>
<wgt id='1541'> +3.9155006E-01 </wgt>
<wgt id='1542'> +3.9018019E-01 </wgt>
<wgt id='1543'> +3.9613680E-01 </wgt>
<wgt id='1544'> +3.9186075E-01 </wgt>
<wgt id='1545'> +3.9081198E-01 </wgt>
<wgt id='1546'> +3.9088638E-01 </wgt>
<wgt id='1547'> +3.9264358E-01 </wgt>
<wgt id='1548'> +3.9266411E-01 </wgt>
<wgt id='1549'> +3.9063956E-01 </wgt>
<wgt id='1550'> +3.9181629E-01 </wgt>
<wgt id='1551'> +3.9156071E-01 </wgt>
<wgt id='1552'> +3.9166732E-01 </wgt>
<wgt id='1553'> +3.9166414E-01 </wgt>
<wgt id='1554'> +3.9195384E-01 </wgt>
<wgt id='1555'> +3.9038260E-01 </wgt>
<wgt id='1556'> +3.9217732E-01 </wgt>
<wgt id='1557'> +3.9210539E-01 </wgt>
<wgt id='1558'> +3.8964364E-01 </wgt>
<wgt id='1559'> +3.9246455E-01 </wgt>
<wgt id='1560'> +3.9279621E-01 </wgt>
<wgt id='1561'> +3.9116648E-01 </wgt>
<wgt id='1562'> +3.9021628E-01 </wgt>
<wgt id='1563'> +3.9223401E-01 </wgt>
<wgt id='1564'> +3.9173480E-01 </wgt>
<wgt id='1565'> +3.9141372E-01 </wgt>
<wgt id='1566'> +3.9078364E-01 </wgt>
<wgt id='1567'> +3.9122719E-01 </wgt>
<wgt id='1568'> +3.9343867E-01 </wgt>
<wgt id='1569'> +3.9296676E-01 </wgt>
<wgt id='1570'> +3.9249237E-01 </wgt>
<wgt id='1571'> +3.9207233E-01 </wgt>
<wgt id='1572'> +3.9159570E-01 </wgt>
<wgt id='1573'> +3.9090049E-01 </wgt>
<wgt id='1574'> +3.9036169E-01 </wgt>
<wgt id='1575'> +3.9001693E-01 </wgt>
<wgt id='1576'> +3.9122719E-01 </wgt>
<wgt id='1577'> +3.9134047E-01 </wgt>
<wgt id='1578'> +3.9128877E-01 </wgt>
<wgt id='1579'> +3.9116033E-01 </wgt>
<wgt id='1580'> +3.9110889E-01 </wgt>
<wgt id='1581'> +3.9318004E-01 </wgt>
<wgt id='1582'> +3.9339000E-01 </wgt>
<wgt id='1583'> +3.9460322E-01 </wgt>
<wgt id='1584'> +3.9112834E-01 </wgt>
<wgt id='1585'> +3.9438564E-01 </wgt>
<wgt id='1586'> +3.9168894E-01 </wgt>
<wgt id='1587'> +3.8846092E-01 </wgt>
<wgt id='1588'> +3.9554849E-01 </wgt>
<wgt id='1589'> +3.9301090E-01 </wgt>
<wgt id='1590'> +3.9300097E-01 </wgt>
<wgt id='1591'> +3.9233413E-01 </wgt>
<wgt id='1592'> +3.9645003E-01 </wgt>
<wgt id='1593'> +3.9385001E-01 </wgt>
<wgt id='1594'> +3.9318308E-01 </wgt>
<wgt id='1595'> +3.9291222E-01 </wgt>
<wgt id='1596'> +3.9527481E-01 </wgt>
<wgt id='1597'> +3.9392427E-01 </wgt>
<wgt id='1598'> +3.9384476E-01 </wgt>
<wgt id='1599'> +3.9344065E-01 </wgt>
<wgt id='1600'> +3.9397890E-01 </wgt>
<wgt id='1601'> +3.9270608E-01 </wgt>
<wgt id='1602'> +3.9385414E-01 </wgt>
<wgt id='1603'> +3.9365357E-01 </wgt>
<wgt id='1604'> +3.9354737E-01 </wgt>
<wgt id='1605'> +3.9285392E-01 </wgt>
<wgt id='1606'> +3.9339420E-01 </wgt>
<wgt id='1607'> +3.9377251E-01 </wgt>
<wgt id='1608'> +3.9353218E-01 </wgt>
<wgt id='1609'> +3.9376970E-01 </wgt>
<wgt id='1610'> +3.9308778E-01 </wgt>
<wgt id='1611'> +3.9479022E-01 </wgt>
<wgt id='1612'> +3.9307743E-01 </wgt>
<wgt id='1613'> +3.9278398E-01 </wgt>
<wgt id='1614'> +3.9420702E-01 </wgt>
<wgt id='1615'> +3.9423661E-01 </wgt>
<wgt id='1616'> +3.9261820E-01 </wgt>
<wgt id='1617'> +3.9246098E-01 </wgt>
<wgt id='1618'> +3.9336923E-01 </wgt>
<wgt id='1619'> +3.9143849E-01 </wgt>
<wgt id='1620'> +3.9229458E-01 </wgt>
<wgt id='1621'> +3.9308727E-01 </wgt>
<wgt id='1622'> +3.9414304E-01 </wgt>
<wgt id='1623'> +3.9337835E-01 </wgt>
<wgt id='1624'> +3.9308941E-01 </wgt>
<wgt id='1625'> +3.9477474E-01 </wgt>
<wgt id='1626'> +3.9531975E-01 </wgt>
<wgt id='1627'> +3.9306147E-01 </wgt>
<wgt id='1628'> +3.9274895E-01 </wgt>
<wgt id='1629'> +3.9364991E-01 </wgt>
<wgt id='1630'> +3.9428862E-01 </wgt>
<wgt id='1631'> +3.9316973E-01 </wgt>
<wgt id='1632'> +3.9418229E-01 </wgt>
<wgt id='1633'> +3.9224823E-01 </wgt>
<wgt id='1634'> +3.9437716E-01 </wgt>
<wgt id='1635'> +3.9237340E-01 </wgt>
<wgt id='1636'> +3.9341821E-01 </wgt>
<wgt id='1637'> +3.9396331E-01 </wgt>
<wgt id='1638'> +3.9266831E-01 </wgt>
<wgt id='1639'> +3.9420620E-01 </wgt>
<wgt id='1640'> +3.9379069E-01 </wgt>
<wgt id='1641'> +3.8930681E-01 </wgt>
<wgt id='1642'> +3.9227951E-01 </wgt>
<wgt id='1643'> +3.9274228E-01 </wgt>
<wgt id='1644'> +3.9242192E-01 </wgt>
<wgt id='1645'> +3.9264845E-01 </wgt>
<wgt id='1646'> +3.9354036E-01 </wgt>
<wgt id='1647'> +3.9259988E-01 </wgt>
<wgt id='1648'> +3.9232764E-01 </wgt>
<wgt id='1649'> +3.9340913E-01 </wgt>
<wgt id='1650'> +3.9277580E-01 </wgt>
<wgt id='1651'> +3.9302312E-01 </wgt>
<wgt id='1652'> +3.9256673E-01 </wgt>
<wgt id='1653'> +3.9245666E-01 </wgt>
<wgt id='1654'> +3.9309161E-01 </wgt>
<wgt id='1655'> +3.9379491E-01 </wgt>
<wgt id='1656'> +3.9282858E-01 </wgt>
<wgt id='1657'> +3.9308478E-01 </wgt>
<wgt id='1658'> +3.9334439E-01 </wgt>
<wgt id='1659'> +3.9334792E-01 </wgt>
<wgt id='1660'> +3.9380038E-01 </wgt>
<wgt id='1661'> +3.9349289E-01 </wgt>
<wgt id='1662'> +3.9403242E-01 </wgt>
<wgt id='1663'> +3.9422616E-01 </wgt>
<wgt id='1664'> +3.9342579E-01 </wgt>
<wgt id='1665'> +3.9361139E-01 </wgt>
<wgt id='1666'> +3.9382173E-01 </wgt>
<wgt id='1667'> +3.9332675E-01 </wgt>
<wgt id='1668'> +3.9246317E-01 </wgt>
<wgt id='1669'> +3.9281250E-01 </wgt>
<wgt id='1670'> +3.9293927E-01 </wgt>
<wgt id='1671'> +3.9338426E-01 </wgt>
<wgt id='1672'> +3.9264060E-01 </wgt>
<wgt id='1673'> +3.9323086E-01 </wgt>
<wgt id='1674'> +3.9309815E-01 </wgt>
<wgt id='1675'> +3.9313819E-01 </wgt>
<wgt id='1676'> +3.9236642E-01 </wgt>
<wgt id='1677'> +3.9339468E-01 </wgt>
<wgt id='1678'> +3.9337871E-01 </wgt>
<wgt id='1679'> +3.9379868E-01 </wgt>
<wgt id='1680'> +3.9360436E-01 </wgt>
<wgt id='1681'> +3.9321330E-01 </wgt>
<wgt id='1682'> +3.9294827E-01 </wgt>
<wgt id='1683'> +3.9279696E-01 </wgt>
<wgt id='1684'> +3.9283289E-01 </wgt>
<wgt id='1685'> +3.9221168E-01 </wgt>
<wgt id='1686'> +3.9329745E-01 </wgt>
<wgt id='1687'> +3.9334212E-01 </wgt>
<wgt id='1688'> +3.9326121E-01 </wgt>
<wgt id='1689'> +3.9350068E-01 </wgt>
<wgt id='1690'> +3.9276099E-01 </wgt>
<wgt id='1691'> +3.9371133E-01 </wgt>
<wgt id='1692'> +3.9289542E-01 </wgt>
<wgt id='1693'> +3.9339106E-01 </wgt>
<wgt id='1694'> +3.9351972E-01 </wgt>
<wgt id='1695'> +3.9293738E-01 </wgt>
<wgt id='1696'> +3.9320707E-01 </wgt>
<wgt id='1697'> +3.9302771E-01 </wgt>
<wgt id='1698'> +3.9323973E-01 </wgt>
<wgt id='1699'> +3.9299428E-01 </wgt>
<wgt id='1700'> +3.9356855E-01 </wgt>
<wgt id='1701'> +3.9286957E-01 </wgt>
<wgt id='1702'> +3.9312238E-01 </wgt>
<wgt id='1703'> +3.9321448E-01 </wgt>
<wgt id='1704'> +3.9322462E-01 </wgt>
<wgt id='1705'> +3.9330967E-01 </wgt>
<wgt id='1706'> +3.9302243E-01 </wgt>
<wgt id='1707'> +3.9330275E-01 </wgt>
<wgt id='1708'> +3.9280693E-01 </wgt>
<wgt id='1709'> +3.9298248E-01 </wgt>
<wgt id='1710'> +3.9304439E-01 </wgt>
<wgt id='1711'> +3.9317941E-01 </wgt>
<wgt id='1712'> +3.9280951E-01 </wgt>
<wgt id='1713'> +3.8910635E-01 </wgt>
<wgt id='1714'> +3.9596671E-01 </wgt>
<wgt id='1715'> +3.8818097E-01 </wgt>
<wgt id='1716'> +3.8544834E-01 </wgt>
<wgt id='1717'> +3.8623724E-01 </wgt>
<wgt id='1718'> +3.7814641E-01 </wgt>
<wgt id='1719'> +3.8509223E-01 </wgt>
<wgt id='1720'> +3.9751739E-01 </wgt>
<wgt id='1721'> +3.7111971E-01 </wgt>
<wgt id='1722'> +3.8257917E-01 </wgt>
<wgt id='1723'> +3.8828624E-01 </wgt>
<wgt id='1724'> +3.9211230E-01 </wgt>
<wgt id='1725'> +3.9466238E-01 </wgt>
<wgt id='1726'> +3.9711009E-01 </wgt>
<wgt id='1727'> +3.8629956E-01 </wgt>
<wgt id='1728'> +3.8944596E-01 </wgt>
<wgt id='1729'> +3.8882809E-01 </wgt>
<wgt id='1730'> +3.8030095E-01 </wgt>
<wgt id='1731'> +3.6718714E-01 </wgt>
<wgt id='1732'> +4.0042615E-01 </wgt>
<wgt id='1733'> +3.9564069E-01 </wgt>
<wgt id='1734'> +3.8644278E-01 </wgt>
<wgt id='1735'> +3.8162433E-01 </wgt>
<wgt id='1736'> +3.8528683E-01 </wgt>
<wgt id='1737'> +3.8954610E-01 </wgt>
<wgt id='1738'> +3.9570376E-01 </wgt>
<wgt id='1739'> +3.7989724E-01 </wgt>
<wgt id='1740'> +3.8146532E-01 </wgt>
<wgt id='1741'> +3.9041057E-01 </wgt>
<wgt id='1742'> +4.0255103E-01 </wgt>
<wgt id='1743'> +3.7946633E-01 </wgt>
<wgt id='1744'> +3.9389562E-01 </wgt>
<wgt id='1745'> +3.7696972E-01 </wgt>
<wgt id='1746'> +3.8758303E-01 </wgt>
<wgt id='1747'> +3.8763802E-01 </wgt>
<wgt id='1748'> +3.8963938E-01 </wgt>
<wgt id='1749'> +4.0200168E-01 </wgt>
<wgt id='1750'> +3.9093448E-01 </wgt>
<wgt id='1751'> +3.8769291E-01 </wgt>
<wgt id='1752'> +3.6733953E-01 </wgt>
<wgt id='1753'> +3.8848866E-01 </wgt>
<wgt id='1754'> +3.9229165E-01 </wgt>
<wgt id='1755'> +3.8920126E-01 </wgt>
<wgt id='1756'> +3.8092863E-01 </wgt>
<wgt id='1757'> +3.8027036E-01 </wgt>
<wgt id='1758'> +3.7889723E-01 </wgt>
<wgt id='1759'> +3.8462401E-01 </wgt>
<wgt id='1760'> +3.8122568E-01 </wgt>
<wgt id='1761'> +3.9014080E-01 </wgt>
<wgt id='1762'> +3.8629956E-01 </wgt>
<wgt id='1763'> +3.8290498E-01 </wgt>
<wgt id='1764'> +3.9136459E-01 </wgt>
<wgt id='1765'> +3.9190316E-01 </wgt>
<wgt id='1766'> +4.0643225E-01 </wgt>
<wgt id='1767'> +3.9032217E-01 </wgt>
<wgt id='1768'> +3.7146789E-01 </wgt>
<wgt id='1769'> +3.8974480E-01 </wgt>
<wgt id='1770'> +3.9761238E-01 </wgt>
<wgt id='1771'> +3.8993040E-01 </wgt>
<wgt id='1772'> +3.9213966E-01 </wgt>
<wgt id='1773'> +3.9180616E-01 </wgt>
<wgt id='1774'> +3.8253614E-01 </wgt>
<wgt id='1775'> +3.8922822E-01 </wgt>
<wgt id='1776'> +3.9481948E-01 </wgt>
<wgt id='1777'> +3.8778003E-01 </wgt>
<wgt id='1778'> +3.9336707E-01 </wgt>
<wgt id='1779'> +3.8613733E-01 </wgt>
<wgt id='1780'> +3.9680500E-01 </wgt>
<wgt id='1781'> +3.9086304E-01 </wgt>
<wgt id='1782'> +4.0126476E-01 </wgt>
<wgt id='1783'> +3.8449308E-01 </wgt>
<wgt id='1784'> +3.9762165E-01 </wgt>
<wgt id='1785'> +3.9747956E-01 </wgt>
<wgt id='1786'> +3.9311469E-01 </wgt>
<wgt id='1787'> +3.8942382E-01 </wgt>
<wgt id='1788'> +3.8217672E-01 </wgt>
<wgt id='1789'> +3.9431234E-01 </wgt>
<wgt id='1790'> +3.9191000E-01 </wgt>
<wgt id='1791'> +3.7442577E-01 </wgt>
<wgt id='1792'> +3.8642725E-01 </wgt>
<wgt id='1793'> +4.0620551E-01 </wgt>
<wgt id='1794'> +3.8936640E-01 </wgt>
<wgt id='1795'> +3.7823092E-01 </wgt>
<wgt id='1796'> +3.8802411E-01 </wgt>
<wgt id='1797'> +3.7497876E-01 </wgt>
<wgt id='1798'> +3.9053536E-01 </wgt>
<wgt id='1799'> +4.0064781E-01 </wgt>
<wgt id='1800'> +3.9531878E-01 </wgt>
<wgt id='1801'> +3.7861531E-01 </wgt>
<wgt id='1802'> +3.8389104E-01 </wgt>
<wgt id='1803'> +3.8778785E-01 </wgt>
<wgt id='1804'> +3.9413665E-01 </wgt>
<wgt id='1805'> +3.8979334E-01 </wgt>
<wgt id='1806'> +3.9238925E-01 </wgt>
<wgt id='1807'> +3.7849613E-01 </wgt>
<wgt id='1808'> +3.9290400E-01 </wgt>
<wgt id='1809'> +3.8574664E-01 </wgt>
<wgt id='1810'> +3.8825971E-01 </wgt>
<wgt id='1811'> +3.8899227E-01 </wgt>
<wgt id='1812'> +3.8558762E-01 </wgt>
<wgt id='1813'> +3.8970908E-01 </wgt>
<wgt id='1814'> +3.8085051E-01 </wgt>
<wgt id='1815'> +3.9326494E-01 </wgt>
<wgt id='1816'> +3.9813245E-01 </wgt>
<wgt id='1817'> +4.0199543E-01 </wgt>
<wgt id='1818'> +3.9211065E-01 </wgt>
<wgt id='1819'> +3.9936927E-01 </wgt>
<wgt id='1820'> +4.0895936E-01 </wgt>
<wgt id='1821'> +4.0302225E-01 </wgt>
<wgt id='1822'> +3.9866897E-01 </wgt>
<wgt id='1823'> +4.0061013E-01 </wgt>
<wgt id='1824'> +3.9160855E-01 </wgt>
<wgt id='1825'> +3.9554580E-01 </wgt>
<wgt id='1826'> +3.9284779E-01 </wgt>
<wgt id='1827'> +3.9189195E-01 </wgt>
<wgt id='1828'> +4.0297154E-01 </wgt>
<wgt id='1829'> +3.9967223E-01 </wgt>
<wgt id='1830'> +3.8820456E-01 </wgt>
<wgt id='1831'> +3.9522132E-01 </wgt>
<wgt id='1832'> +3.9845714E-01 </wgt>
<wgt id='1833'> +3.8877132E-01 </wgt>
<wgt id='1834'> +3.9201246E-01 </wgt>
<wgt id='1835'> +4.0237913E-01 </wgt>
<wgt id='1836'> +4.0379299E-01 </wgt>
<wgt id='1837'> +4.0000620E-01 </wgt>
<wgt id='1838'> +3.9176179E-01 </wgt>
<wgt id='1839'> +4.1896039E-01 </wgt>
<wgt id='1840'> +3.9985937E-01 </wgt>
<wgt id='1841'> +3.9874216E-01 </wgt>
<wgt id='1842'> +3.9817711E-01 </wgt>
<wgt id='1843'> +3.8880267E-01 </wgt>
<wgt id='1844'> +3.9598568E-01 </wgt>
<wgt id='1845'> +3.9337553E-01 </wgt>
<wgt id='1846'> +4.0010584E-01 </wgt>
<wgt id='1847'> +3.9768491E-01 </wgt>
<wgt id='1848'> +3.9510261E-01 </wgt>
<wgt id='1849'> +4.0364776E-01 </wgt>
<wgt id='1850'> +4.0483850E-01 </wgt>
<wgt id='1851'> +3.9849423E-01 </wgt>
<wgt id='1852'> +4.0332676E-01 </wgt>
<wgt id='1853'> +3.8886274E-01 </wgt>
<wgt id='1854'> +3.9747130E-01 </wgt>
<wgt id='1855'> +3.9975769E-01 </wgt>
<wgt id='1856'> +4.0325683E-01 </wgt>
<wgt id='1857'> +4.0635764E-01 </wgt>
<wgt id='1858'> +3.9729629E-01 </wgt>
<wgt id='1859'> +3.9968521E-01 </wgt>
<wgt id='1860'> +3.9784617E-01 </wgt>
<wgt id='1861'> +3.9691271E-01 </wgt>
<wgt id='1862'> +4.0352408E-01 </wgt>
<wgt id='1863'> +3.8987825E-01 </wgt>
<wgt id='1864'> +3.9549855E-01 </wgt>
<wgt id='1865'> +4.0035244E-01 </wgt>
<wgt id='1866'> +3.9914400E-01 </wgt>
<wgt id='1867'> +3.9841996E-01 </wgt>
<wgt id='1868'> +3.9324880E-01 </wgt>
<wgt id='1869'> +4.0941543E-01 </wgt>
<wgt id='1870'> +3.9981716E-01 </wgt>
<wgt id='1871'> +4.0049757E-01 </wgt>
<wgt id='1872'> +3.8732564E-01 </wgt>
<wgt id='1873'> +4.0856461E-01 </wgt>
<wgt id='1874'> +3.9669066E-01 </wgt>
<wgt id='1875'> +3.9014414E-01 </wgt>
<wgt id='1876'> +3.9652037E-01 </wgt>
<wgt id='1877'> +4.0012124E-01 </wgt>
<wgt id='1878'> +3.9268810E-01 </wgt>
<wgt id='1879'> +4.0997218E-01 </wgt>
<wgt id='1880'> +3.8200045E-01 </wgt>
<wgt id='1881'> +4.0538558E-01 </wgt>
<wgt id='1882'> +3.9438308E-01 </wgt>
<wgt id='1883'> +4.1397662E-01 </wgt>
<wgt id='1884'> +3.9587357E-01 </wgt>
<wgt id='1885'> +3.9156996E-01 </wgt>
<wgt id='1886'> +3.9286936E-01 </wgt>
<wgt id='1887'> +4.0290131E-01 </wgt>
<wgt id='1888'> +3.9795756E-01 </wgt>
<wgt id='1889'> +3.9115641E-01 </wgt>
<wgt id='1890'> +4.0539467E-01 </wgt>
<wgt id='1891'> +3.9630654E-01 </wgt>
<wgt id='1892'> +3.9801918E-01 </wgt>
<wgt id='1893'> +4.0168052E-01 </wgt>
<wgt id='1894'> +4.0688645E-01 </wgt>
<wgt id='1895'> +4.0451229E-01 </wgt>
<wgt id='1896'> +3.9536806E-01 </wgt>
<wgt id='1897'> +4.0061012E-01 </wgt>
<wgt id='1898'> +4.0159559E-01 </wgt>
<wgt id='1899'> +3.9617060E-01 </wgt>
<wgt id='1900'> +4.0189946E-01 </wgt>
<wgt id='1901'> +3.8382026E-01 </wgt>
<wgt id='1902'> +3.8919458E-01 </wgt>
<wgt id='1903'> +3.9398877E-01 </wgt>
<wgt id='1904'> +4.0031633E-01 </wgt>
<wgt id='1905'> +3.9781883E-01 </wgt>
<wgt id='1906'> +3.9114412E-01 </wgt>
<wgt id='1907'> +3.9778248E-01 </wgt>
<wgt id='1908'> +4.0493339E-01 </wgt>
<wgt id='1909'> +3.9558759E-01 </wgt>
<wgt id='1910'> +4.0581302E-01 </wgt>
<wgt id='1911'> +3.8056606E-01 </wgt>
<wgt id='1912'> +4.0012837E-01 </wgt>
<wgt id='1913'> +4.0251104E-01 </wgt>
<wgt id='1914'> +4.0956133E-01 </wgt>
<wgt id='1915'> +4.0519575E-01 </wgt>
<wgt id='1916'> +3.8129147E-01 </wgt>
<wgt id='1917'> +4.2287511E-01 </wgt>
<wgt id='1918'> +4.4342773E-01 </wgt>
<wgt id='1919'> +3.9813245E-01 </wgt>
<wgt id='1920'> +4.0199543E-01 </wgt>
<wgt id='1921'> +3.9211065E-01 </wgt>
<wgt id='1922'> +3.9936927E-01 </wgt>
<wgt id='1923'> +4.0895936E-01 </wgt>
<wgt id='1924'> +4.0302225E-01 </wgt>
<wgt id='1925'> +3.9866897E-01 </wgt>
<wgt id='1926'> +4.0061013E-01 </wgt>
<wgt id='1927'> +3.9160855E-01 </wgt>
<wgt id='1928'> +3.9554580E-01 </wgt>
<wgt id='1929'> +3.9284779E-01 </wgt>
<wgt id='1930'> +3.9189195E-01 </wgt>
<wgt id='1931'> +4.0297154E-01 </wgt>
<wgt id='1932'> +3.9967223E-01 </wgt>
<wgt id='1933'> +3.8820456E-01 </wgt>
<wgt id='1934'> +3.9522132E-01 </wgt>
<wgt id='1935'> +3.9845714E-01 </wgt>
<wgt id='1936'> +3.8877132E-01 </wgt>
<wgt id='1937'> +3.9201246E-01 </wgt>
<wgt id='1938'> +4.0237913E-01 </wgt>
<wgt id='1939'> +4.0379299E-01 </wgt>
<wgt id='1940'> +4.0000620E-01 </wgt>
<wgt id='1941'> +3.9176179E-01 </wgt>
<wgt id='1942'> +4.1896039E-01 </wgt>
<wgt id='1943'> +3.9985937E-01 </wgt>
<wgt id='1944'> +3.9874216E-01 </wgt>
<wgt id='1945'> +3.9817711E-01 </wgt>
<wgt id='1946'> +3.8880267E-01 </wgt>
<wgt id='1947'> +3.9598568E-01 </wgt>
<wgt id='1948'> +3.9337553E-01 </wgt>
<wgt id='1949'> +4.0010584E-01 </wgt>
<wgt id='1950'> +3.9768491E-01 </wgt>
<wgt id='1951'> +3.9510261E-01 </wgt>
<wgt id='1952'> +4.0364776E-01 </wgt>
<wgt id='1953'> +4.0483850E-01 </wgt>
<wgt id='1954'> +3.9849423E-01 </wgt>
<wgt id='1955'> +4.0332676E-01 </wgt>
<wgt id='1956'> +3.8886274E-01 </wgt>
<wgt id='1957'> +3.9747130E-01 </wgt>
<wgt id='1958'> +3.9975769E-01 </wgt>
<wgt id='1959'> +4.0325683E-01 </wgt>
<wgt id='1960'> +4.0635764E-01 </wgt>
<wgt id='1961'> +3.9729629E-01 </wgt>
<wgt id='1962'> +3.9968521E-01 </wgt>
<wgt id='1963'> +3.9784617E-01 </wgt>
<wgt id='1964'> +3.9691271E-01 </wgt>
<wgt id='1965'> +4.0352408E-01 </wgt>
<wgt id='1966'> +3.8987825E-01 </wgt>
<wgt id='1967'> +3.9549855E-01 </wgt>
<wgt id='1968'> +4.0035244E-01 </wgt>
<wgt id='1969'> +3.9914400E-01 </wgt>
<wgt id='1970'> +3.9841996E-01 </wgt>
<wgt id='1971'> +3.9324880E-01 </wgt>
<wgt id='1972'> +4.0941543E-01 </wgt>
<wgt id='1973'> +3.9981716E-01 </wgt>
<wgt id='1974'> +4.0049757E-01 </wgt>
<wgt id='1975'> +3.8732564E-01 </wgt>
<wgt id='1976'> +4.0856461E-01 </wgt>
<wgt id='1977'> +3.9669066E-01 </wgt>
<wgt id='1978'> +3.9014414E-01 </wgt>
<wgt id='1979'> +3.9652037E-01 </wgt>
<wgt id='1980'> +4.0012124E-01 </wgt>
<wgt id='1981'> +3.9268810E-01 </wgt>
<wgt id='1982'> +4.0997218E-01 </wgt>
<wgt id='1983'> +3.8200045E-01 </wgt>
<wgt id='1984'> +4.0538558E-01 </wgt>
<wgt id='1985'> +3.9438308E-01 </wgt>
<wgt id='1986'> +4.1397662E-01 </wgt>
<wgt id='1987'> +3.9587357E-01 </wgt>
<wgt id='1988'> +3.9156996E-01 </wgt>
<wgt id='1989'> +3.9286936E-01 </wgt>
<wgt id='1990'> +4.0290131E-01 </wgt>
<wgt id='1991'> +3.9795756E-01 </wgt>
<wgt id='1992'> +3.9115641E-01 </wgt>
<wgt id='1993'> +4.0539467E-01 </wgt>
<wgt id='1994'> +3.9630654E-01 </wgt>
<wgt id='1995'> +3.9801918E-01 </wgt>
<wgt id='1996'> +4.0168052E-01 </wgt>
<wgt id='1997'> +4.0688645E-01 </wgt>
<wgt id='1998'> +4.0451229E-01 </wgt>
<wgt id='1999'> +3.9536806E-01 </wgt>
<wgt id='2000'> +4.0061012E-01 </wgt>
<wgt id='2001'> +4.0159559E-01 </wgt>
<wgt id='2002'> +3.9617060E-01 </wgt>
<wgt id='2003'> +4.0189946E-01 </wgt>
<wgt id='2004'> +3.8382026E-01 </wgt>
<wgt id='2005'> +3.8919458E-01 </wgt>
<wgt id='2006'> +3.9398877E-01 </wgt>
<wgt id='2007'> +4.0031633E-01 </wgt>
<wgt id='2008'> +3.9781883E-01 </wgt>
<wgt id='2009'> +3.9114412E-01 </wgt>
<wgt id='2010'> +3.9778248E-01 </wgt>
<wgt id='2011'> +4.0493339E-01 </wgt>
<wgt id='2012'> +3.9558759E-01 </wgt>
<wgt id='2013'> +4.0581302E-01 </wgt>
<wgt id='2014'> +3.8056606E-01 </wgt>
<wgt id='2015'> +4.0012837E-01 </wgt>
<wgt id='2016'> +4.0251104E-01 </wgt>
<wgt id='2017'> +4.0956133E-01 </wgt>
<wgt id='2018'> +4.0519575E-01 </wgt>
<wgt id='2019'> +3.8129147E-01 </wgt>
<wgt id='2020'> +3.9791440E-01 </wgt>
<wgt id='2021'> +3.9815376E-01 </wgt>
<wgt id='2022'> +3.9806953E-01 </wgt>
</rwgt>
</event>
<event>
13      2 +3.9556008E-01 9.91919300e+01 7.81860800e-03 1.13059200e-01
        1 -1    0    0  501    0 +0.0000000000e+00 +0.0000000000e+00 +1.9267595996e+02 1.9267596003e+02 5.0400000000e-03 0.0000e+00 -1.0000e+00
       21 -1    0    0  502  503 +0.0000000000e+00 +0.0000000000e+00 -1.5321186857e+03 1.5321186857e+03 0.0000000000e+00 0.0000e+00 1.0000e+00
 -8000001  2    1    2    0  503 +9.5552005566e+01 -1.1210450675e+01 -8.9042246300e+02 1.0780122332e+03 6.0000196032e+02 0.0000e+00 0.0000e+00
        2  1    1    2  501    0 -9.9246662150e+01 +2.4768406292e+00 +7.3895282200e+01 1.2376003970e+02 2.5500000000e-03 0.0000e+00 -1.0000e+00
        5  1    1    2  502    0 +3.6946565838e+00 +8.7336100453e+00 -5.2291554494e+02 5.2302237282e+02 4.6700000000e+00 0.0000e+00 -1.0000e+00
       -6  2    3    3    0  503 +1.4700762498e+02 -1.3133963876e+02 -1.1663114635e+02 2.8794861669e+02 1.7449996860e+02 0.0000e+00 0.0000e+00
       -5  1    6    6    0  503 -2.9212821096e+01 -3.9463202620e+01 -3.3166914421e+01 5.9435565029e+01 4.6700000000e+00 0.0000e+00 1.0000e+00
      -24  2    6    6    0    0 +1.7622044607e+02 -9.1876436140e+01 -8.3464231932e+01 2.2851305166e+02 7.5874973708e+01 0.0000e+00 0.0000e+00
        1  1    8    8  504    0 +5.9128251800e+01 -3.1493206271e+01 -6.8678305573e+01 9.5941033369e+01 5.0400000000e-03 0.0000e+00 -1.0000e+00
       -2  1    8    8    0  504 +1.1709219427e+02 -6.0383229869e+01 -1.4785926360e+01 1.3257201829e+02 2.5500000000e-03 0.0000e+00 1.0000e+00
       23  2    3    3    0    0 -5.1455619411e+01 +1.2012918808e+02 -7.7379131665e+02 7.9006361652e+02 9.1481221225e+01 0.0000e+00 0.0000e+00
        5  1   11   11  505    0 -7.4910847823e+01 +1.0756640821e+02 -6.7612926207e+02 6.8873416877e+02 4.6700000000e+00 0.0000e+00 -1.0000e+00
       -5  1   11   11    0  505 +2.3455228412e+01 +1.2562779872e+01 -9.7662054577e+01 1.0132944776e+02 4.6700000000e+00 0.0000e+00 1.0000e+00
<mgrwt>
<rscale>  1 0.89179275e+02</rscale>
<asrwt>0</asrwt>
<pdfrwt beam="1">  1       21 0.23571056e+00 0.80177316e+02</pdfrwt>
<pdfrwt beam="2">  1        1 0.29642456e-01 0.99191934e+02</pdfrwt>
<totfact> 0.13234805e+02</totfact>
</mgrwt>
<rwgt>
<wgt id='1001'> +3.9556008E-01 </wgt>
<wgt id='1002'> +2.3762674E-01 </wgt>
<wgt id='1003'> +2.3744002E-01 </wgt>
<wgt id='1004'> +2.8452370E-01 </wgt>
<wgt id='1005'> +1.9846281E-01 </wgt>
<wgt id='1006'> +3.5641963E-01 </wgt>
<wgt id='1007'> +2.1900860E-01 </wgt>
<wgt id='1008'> +2.1884336E-01 </wgt>
<wgt id='1009'> +2.6024927E-01 </wgt>
<wgt id='1010'> +1.8417253E-01 </wgt>
<wgt id='1011'> +4.4473112E-01 </wgt>
<wgt id='1012'> +2.5980094E-01 </wgt>
<wgt id='1013'> +2.5958695E-01 </wgt>
<wgt id='1014'> +3.1395145E-01 </wgt>
<wgt id='1015'> +2.1521791E-01 </wgt>
<wgt id='1016'> +3.5624816E-01 </wgt>
<wgt id='1017'> +2.1807987E-01 </wgt>
<wgt id='1018'> +2.1791408E-01 </wgt>
<wgt id='1019'> +2.5958695E-01 </wgt>
<wgt id='1020'> +1.8313563E-01 </wgt>
<wgt id='1021'> +3.2099760E-01 </wgt>
<wgt id='1022'> +2.0099324E-01 </wgt>
<wgt id='1023'> +2.0084673E-01 </wgt>
<wgt id='1024'> +2.3744002E-01 </wgt>
<wgt id='1025'> +1.6994897E-01 </wgt>
<wgt id='1026'> +4.0053244E-01 </wgt>
<wgt id='1027'> +2.3843006E-01 </wgt>
<wgt id='1028'> +2.3823976E-01 </wgt>
<wgt id='1029'> +2.8643554E-01 </wgt>
<wgt id='1030'> +1.9859674E-01 </wgt>
<wgt id='1031'> +4.4308135E-01 </wgt>
<wgt id='1032'> +2.6046122E-01 </wgt>
<wgt id='1033'> +2.6024927E-01 </wgt>
<wgt id='1034'> +3.1396269E-01 </wgt>
<wgt id='1035'> +2.1615661E-01 </wgt>
<wgt id='1036'> +3.9923870E-01 </wgt>
<wgt id='1037'> +2.4005399E-01 </wgt>
<wgt id='1038'> +2.3986615E-01 </wgt>
<wgt id='1039'> +2.8717664E-01 </wgt>
<wgt id='1040'> +2.0059228E-01 </wgt>
<wgt id='1041'> +4.9815963E-01 </wgt>
<wgt id='1042'> +2.8476623E-01 </wgt>
<wgt id='1043'> +2.8452370E-01 </wgt>
<wgt id='1044'> +3.4643526E-01 </wgt>
<wgt id='1045'> +2.3440549E-01 </wgt>
<wgt id='1046'> +3.9556008E-01 </wgt>
<wgt id='1047'> +3.9556008E-01 </wgt>
<wgt id='1048'> +3.9556008E-01 </wgt>
<wgt id='1049'> +3.9545533E-01 </wgt>
<wgt id='1050'> +3.9528538E-01 </wgt>
<wgt id='1051'> +3.9428643E-01 </wgt>
<wgt id='1052'> +3.9625198E-01 </wgt>
<wgt id='1053'> +3.9350157E-01 </wgt>
<wgt id='1054'> +3.9474206E-01 </wgt>
<wgt id='1055'> +3.9377320E-01 </wgt>
<wgt id='1056'> +3.9240258E-01 </wgt>
<wgt id='1057'> +3.9495110E-01 </wgt>
<wgt id='1058'> +3.9300450E-01 </wgt>
<wgt id='1059'> +3.9873692E-01 </wgt>
<wgt id='1060'> +3.9662440E-01 </wgt>
<wgt id='1061'> +3.9570637E-01 </wgt>
<wgt id='1062'> +3.9617822E-01 </wgt>
<wgt id='1063'> +3.9957432E-01 </wgt>
<wgt id='1064'> +3.9459608E-01 </wgt>
<wgt id='1065'> +3.9680391E-01 </wgt>
<wgt id='1066'> +3.9170242E-01 </wgt>
<wgt id='1067'> +3.9657689E-01 </wgt>
<wgt id='1068'> +3.9717003E-01 </wgt>
<wgt id='1069'> +3.9510305E-01 </wgt>
<wgt id='1070'> +3.9850268E-01 </wgt>
<wgt id='1071'> +3.9266863E-01 </wgt>
<wgt id='1072'> +3.9871479E-01 </wgt>
<wgt id='1073'> +3.9114412E-01 </wgt>
<wgt id='1074'> +3.9225349E-01 </wgt>
<wgt id='1075'> +4.0048789E-01 </wgt>
<wgt id='1076'> +3.9294028E-01 </wgt>
<wgt id='1077'> +3.9481778E-01 </wgt>
<wgt id='1078'> +3.9704436E-01 </wgt>
<wgt id='1079'> +3.9606560E-01 </wgt>
<wgt id='1080'> +3.9408963E-01 </wgt>
<wgt id='1081'> +3.9625369E-01 </wgt>
<wgt id='1082'> +3.9427770E-01 </wgt>
<wgt id='1083'> +3.9838205E-01 </wgt>
<wgt id='1084'> +3.9536320E-01 </wgt>
<wgt id='1085'> +3.9382903E-01 </wgt>
<wgt id='1086'> +3.9510828E-01 </wgt>
<wgt id='1087'> +3.9697430E-01 </wgt>
<wgt id='1088'> +3.9424511E-01 </wgt>
<wgt id='1089'> +3.9498028E-01 </wgt>
<wgt id='1090'> +3.9661304E-01 </wgt>
<wgt id='1091'> +3.9461596E-01 </wgt>
<wgt id='1092'> +3.9469585E-01 </wgt>
<wgt id='1093'> +3.9574997E-01 </wgt>
<wgt id='1094'> +3.9470466E-01 </wgt>
<wgt id='1095'> +3.9541177E-01 </wgt>
<wgt id='1096'> +3.9590888E-01 </wgt>
<wgt id='1097'> +3.9406075E-01 </wgt>
<wgt id='1098'> +3.9485894E-01 </wgt>
<wgt id='1099'> +3.9445486E-01 </wgt>
<wgt id='1100'> +3.9641264E-01 </wgt>
<wgt id='1101'> +3.9519691E-01 </wgt>
<wgt id='1102'> +3.9607082E-01 </wgt>
<wgt id='1103'> +3.9457855E-01 </wgt>
<wgt id='1104'> +3.9557671E-01 </wgt>
<wgt id='1105'> +3.9620760E-01 </wgt>
<wgt id='1106'> +3.9665257E-01 </wgt>
<wgt id='1107'> +3.9675724E-01 </wgt>
<wgt id='1108'> +3.9522692E-01 </wgt>
<wgt id='1109'> +3.9546371E-01 </wgt>
<wgt id='1110'> +3.9606580E-01 </wgt>
<wgt id='1111'> +3.9516438E-01 </wgt>
<wgt id='1112'> +3.9546230E-01 </wgt>
<wgt id='1113'> +3.9627321E-01 </wgt>
<wgt id='1114'> +3.9506022E-01 </wgt>
<wgt id='1115'> +3.9449883E-01 </wgt>
<wgt id='1116'> +3.9696157E-01 </wgt>
<wgt id='1117'> +3.9575129E-01 </wgt>
<wgt id='1118'> +3.9572085E-01 </wgt>
<wgt id='1119'> +3.9529614E-01 </wgt>
<wgt id='1120'> +3.9518373E-01 </wgt>
<wgt id='1121'> +3.9524617E-01 </wgt>
<wgt id='1122'> +3.9562104E-01 </wgt>
<wgt id='1123'> +3.9505405E-01 </wgt>
<wgt id='1124'> +3.9591120E-01 </wgt>
<wgt id='1125'> +3.9574828E-01 </wgt>
<wgt id='1126'> +3.9570057E-01 </wgt>
<wgt id='1127'> +3.9562431E-01 </wgt>
<wgt id='1128'> +3.9566973E-01 </wgt>
<wgt id='1129'> +3.9512729E-01 </wgt>
<wgt id='1130'> +3.9545883E-01 </wgt>
<wgt id='1131'> +3.9612147E-01 </wgt>
<wgt id='1132'> +3.9531382E-01 </wgt>
<wgt id='1133'> +3.9568361E-01 </wgt>
<wgt id='1134'> +3.9545382E-01 </wgt>
<wgt id='1135'> +3.9584129E-01 </wgt>
<wgt id='1136'> +3.9536766E-01 </wgt>
<wgt id='1137'> +3.9513290E-01 </wgt>
<wgt id='1138'> +3.9563809E-01 </wgt>
<wgt id='1139'> +3.9569484E-01 </wgt>
<wgt id='1140'> +3.9596383E-01 </wgt>
<wgt id='1141'> +3.9529202E-01 </wgt>
<wgt id='1142'> +3.9543997E-01 </wgt>
<wgt id='1143'> +3.9602721E-01 </wgt>
<wgt id='1144'> +3.9528038E-01 </wgt>
<wgt id='1145'> +3.9588317E-01 </wgt>
<wgt id='1146'> +3.9565387E-01 </wgt>
<wgt id='1147'> +3.9555425E-01 </wgt>
<wgt id='1148'> +3.9556008E-01 </wgt>
<wgt id='1149'> +3.8158819E-01 </wgt>
<wgt id='1150'> +4.1931923E-01 </wgt>
<wgt id='1151'> +3.7897760E-01 </wgt>
<wgt id='1152'> +3.4877749E-01 </wgt>
<wgt id='1153'> +3.7198547E-01 </wgt>
<wgt id='1154'> +3.7348581E-01 </wgt>
<wgt id='1155'> +4.0487193E-01 </wgt>
<wgt id='1156'> +3.8237489E-01 </wgt>
<wgt id='1157'> +3.6794979E-01 </wgt>
<wgt id='1158'> +3.6970278E-01 </wgt>
<wgt id='1159'> +3.8679673E-01 </wgt>
<wgt id='1160'> +3.8174427E-01 </wgt>
<wgt id='1161'> +3.8712830E-01 </wgt>
<wgt id='1162'> +3.8677140E-01 </wgt>
<wgt id='1163'> +3.8930284E-01 </wgt>
<wgt id='1164'> +3.8775685E-01 </wgt>
<wgt id='1165'> +3.7204509E-01 </wgt>
<wgt id='1166'> +3.8426077E-01 </wgt>
<wgt id='1167'> +3.7145945E-01 </wgt>
<wgt id='1168'> +3.7236247E-01 </wgt>
<wgt id='1169'> +3.6917837E-01 </wgt>
<wgt id='1170'> +3.8072901E-01 </wgt>
<wgt id='1171'> +3.7721590E-01 </wgt>
<wgt id='1172'> +3.8206303E-01 </wgt>
<wgt id='1173'> +3.8831043E-01 </wgt>
<wgt id='1174'> +3.7109171E-01 </wgt>
<wgt id='1175'> +3.8098819E-01 </wgt>
<wgt id='1176'> +3.9707814E-01 </wgt>
<wgt id='1177'> +3.7010268E-01 </wgt>
<wgt id='1178'> +3.8784282E-01 </wgt>
<wgt id='1179'> +3.9066361E-01 </wgt>
<wgt id='1180'> +3.5916671E-01 </wgt>
<wgt id='1181'> +3.9853668E-01 </wgt>
<wgt id='1182'> +3.8624538E-01 </wgt>
<wgt id='1183'> +3.7694956E-01 </wgt>
<wgt id='1184'> +3.6397483E-01 </wgt>
<wgt id='1185'> +3.9186744E-01 </wgt>
<wgt id='1186'> +3.8285455E-01 </wgt>
<wgt id='1187'> +3.8154500E-01 </wgt>
<wgt id='1188'> +3.9035528E-01 </wgt>
<wgt id='1189'> +3.7062878E-01 </wgt>
<wgt id='1190'> +3.6501787E-01 </wgt>
<wgt id='1191'> +3.8564552E-01 </wgt>
<wgt id='1192'> +3.8681976E-01 </wgt>
<wgt id='1193'> +3.8678421E-01 </wgt>
<wgt id='1194'> +3.8014027E-01 </wgt>
<wgt id='1195'> +3.9067611E-01 </wgt>
<wgt id='1196'> +3.8995563E-01 </wgt>
<wgt id='1197'> +3.8377156E-01 </wgt>
<wgt id='1198'> +4.0220874E-01 </wgt>
<wgt id='1199'> +3.8421044E-01 </wgt>
<wgt id='1200'> +4.0440702E-01 </wgt>
<wgt id='1201'> +3.7914144E-01 </wgt>
<wgt id='1202'> +3.8355042E-01 </wgt>
<wgt id='1203'> +3.9816796E-01 </wgt>
<wgt id='1204'> +3.7248003E-01 </wgt>
<wgt id='1205'> +3.8989224E-01 </wgt>
<wgt id='1206'> +3.9678965E-01 </wgt>
<wgt id='1207'> +3.9373483E-01 </wgt>
<wgt id='1208'> +3.6203351E-01 </wgt>
<wgt id='1209'> +3.9331279E-01 </wgt>
<wgt id='1210'> +3.8903572E-01 </wgt>
<wgt id='1211'> +3.7915802E-01 </wgt>
<wgt id='1212'> +3.7971041E-01 </wgt>
<wgt id='1213'> +3.7702877E-01 </wgt>
<wgt id='1214'> +3.8083759E-01 </wgt>
<wgt id='1215'> +3.7297011E-01 </wgt>
<wgt id='1216'> +3.6828943E-01 </wgt>
<wgt id='1217'> +3.8737212E-01 </wgt>
<wgt id='1218'> +3.8422750E-01 </wgt>
<wgt id='1219'> +3.9857737E-01 </wgt>
<wgt id='1220'> +3.8170446E-01 </wgt>
<wgt id='1221'> +3.9676529E-01 </wgt>
<wgt id='1222'> +3.6263173E-01 </wgt>
<wgt id='1223'> +3.6008480E-01 </wgt>
<wgt id='1224'> +3.7380776E-01 </wgt>
<wgt id='1225'> +3.7454021E-01 </wgt>
<wgt id='1226'> +3.7586333E-01 </wgt>
<wgt id='1227'> +3.8489191E-01 </wgt>
<wgt id='1228'> +3.8038998E-01 </wgt>
<wgt id='1229'> +3.9250861E-01 </wgt>
<wgt id='1230'> +3.8574096E-01 </wgt>
<wgt id='1231'> +3.7204509E-01 </wgt>
<wgt id='1232'> +3.7438482E-01 </wgt>
<wgt id='1233'> +3.6943137E-01 </wgt>
<wgt id='1234'> +3.7249226E-01 </wgt>
<wgt id='1235'> +4.1674933E-01 </wgt>
<wgt id='1236'> +3.8207885E-01 </wgt>
<wgt id='1237'> +3.8789299E-01 </wgt>
<wgt id='1238'> +3.4147691E-01 </wgt>
<wgt id='1239'> +3.7665970E-01 </wgt>
<wgt id='1240'> +3.7013127E-01 </wgt>
<wgt id='1241'> +3.9141132E-01 </wgt>
<wgt id='1242'> +3.7739945E-01 </wgt>
<wgt id='1243'> +3.9489126E-01 </wgt>
<wgt id='1244'> +3.9653281E-01 </wgt>
<wgt id='1245'> +3.6751823E-01 </wgt>
<wgt id='1246'> +4.0767696E-01 </wgt>
<wgt id='1247'> +3.7546910E-01 </wgt>
<wgt id='1248'> +3.6335924E-01 </wgt>
<wgt id='1249'> +3.7251502E-01 </wgt>
<wgt id='1250'> +4.2424831E-01 </wgt>
<wgt id='1251'> +4.1867980E-01 </wgt>
<wgt id='1252'> +4.5341735E-01 </wgt>
<wgt id='1253'> +4.4486901E-01 </wgt>
<wgt id='1254'> +5.2423775E-01 </wgt>
<wgt id='1255'> +4.6277236E-01 </wgt>
<wgt id='1256'> +4.6215573E-01 </wgt>
<wgt id='1257'> +4.6314647E-01 </wgt>
<wgt id='1258'> +4.6352465E-01 </wgt>
<wgt id='1259'> +4.6239875E-01 </wgt>
<wgt id='1260'> +4.6322979E-01 </wgt>
<wgt id='1261'> +4.6216740E-01 </wgt>
<wgt id='1262'> +4.6310673E-01 </wgt>
<wgt id='1263'> +4.6255629E-01 </wgt>
<wgt id='1264'> +4.6336441E-01 </wgt>
<wgt id='1265'> +4.6234223E-01 </wgt>
<wgt id='1266'> +4.6425552E-01 </wgt>
<wgt id='1267'> +4.6130921E-01 </wgt>
<wgt id='1268'> +4.6564783E-01 </wgt>
<wgt id='1269'> +4.5988975E-01 </wgt>
<wgt id='1270'> +4.5306852E-01 </wgt>
<wgt id='1271'> +4.7403541E-01 </wgt>
<wgt id='1272'> +4.6037728E-01 </wgt>
<wgt id='1273'> +4.6454511E-01 </wgt>
<wgt id='1274'> +4.6690448E-01 </wgt>
<wgt id='1275'> +4.5767924E-01 </wgt>
<wgt id='1276'> +4.7326780E-01 </wgt>
<wgt id='1277'> +4.5210086E-01 </wgt>
<wgt id='1278'> +4.5836921E-01 </wgt>
<wgt id='1279'> +4.6606067E-01 </wgt>
<wgt id='1280'> +4.6413369E-01 </wgt>
<wgt id='1281'> +4.5847465E-01 </wgt>
<wgt id='1282'> +4.5353528E-01 </wgt>
<wgt id='1283'> +4.7014141E-01 </wgt>
<wgt id='1284'> +4.6653988E-01 </wgt>
<wgt id='1285'> +4.5900527E-01 </wgt>
<wgt id='1286'> +4.6363132E-01 </wgt>
<wgt id='1287'> +4.6272411E-01 </wgt>
<wgt id='1288'> +4.6556228E-01 </wgt>
<wgt id='1289'> +4.6169551E-01 </wgt>
<wgt id='1290'> +4.6345494E-01 </wgt>
<wgt id='1291'> +4.6254558E-01 </wgt>
<wgt id='1292'> +4.6594714E-01 </wgt>
<wgt id='1293'> +4.5865633E-01 </wgt>
<wgt id='1294'> +4.6781115E-01 </wgt>
<wgt id='1295'> +4.5637602E-01 </wgt>
<wgt id='1296'> +4.5658201E-01 </wgt>
<wgt id='1297'> +4.5810560E-01 </wgt>
<wgt id='1298'> +4.5533409E-01 </wgt>
<wgt id='1299'> +4.5775701E-01 </wgt>
<wgt id='1300'> +4.5527407E-01 </wgt>
<wgt id='1301'> +4.5586059E-01 </wgt>
<wgt id='1302'> +4.5765513E-01 </wgt>
<wgt id='1303'> +4.5807472E-01 </wgt>
<wgt id='1304'> +4.5557267E-01 </wgt>
<wgt id='1305'> +4.5659978E-01 </wgt>
<wgt id='1306'> +4.5655458E-01 </wgt>
<wgt id='1307'> +4.5639115E-01 </wgt>
<wgt id='1308'> +4.5669401E-01 </wgt>
<wgt id='1309'> +4.5677029E-01 </wgt>
<wgt id='1310'> +4.5628918E-01 </wgt>
<wgt id='1311'> +4.5652548E-01 </wgt>
<wgt id='1312'> +4.5659462E-01 </wgt>
<wgt id='1313'> +4.4805992E-01 </wgt>
<wgt id='1314'> +4.6739600E-01 </wgt>
<wgt id='1315'> +4.5843947E-01 </wgt>
<wgt id='1316'> +4.5488107E-01 </wgt>
<wgt id='1317'> +4.6960267E-01 </wgt>
<wgt id='1318'> +4.3508052E-01 </wgt>
<wgt id='1319'> +4.4857184E-01 </wgt>
<wgt id='1320'> +4.6177492E-01 </wgt>
<wgt id='1321'> +4.5026637E-01 </wgt>
<wgt id='1322'> +4.5964441E-01 </wgt>
<wgt id='1323'> +4.5852912E-01 </wgt>
<wgt id='1324'> +4.5518806E-01 </wgt>
<wgt id='1325'> +4.5337445E-01 </wgt>
<wgt id='1326'> +4.6110609E-01 </wgt>
<wgt id='1327'> +4.5479906E-01 </wgt>
<wgt id='1328'> +4.5732415E-01 </wgt>
<wgt id='1329'> +4.5720628E-01 </wgt>
<wgt id='1330'> +4.5629072E-01 </wgt>
<wgt id='1331'> +4.6046448E-01 </wgt>
<wgt id='1332'> +4.5455896E-01 </wgt>
<wgt id='1333'> +4.4822949E-01 </wgt>
<wgt id='1334'> +4.6962478E-01 </wgt>
<wgt id='1335'> +4.5790281E-01 </wgt>
<wgt id='1336'> +4.5625966E-01 </wgt>
<wgt id='1337'> +4.5658201E-01 </wgt>
<wgt id='1338'> +4.5711699E-01 </wgt>
<wgt id='1339'> +4.5696971E-01 </wgt>
<wgt id='1340'> +4.5674686E-01 </wgt>
<wgt id='1341'> +4.5652462E-01 </wgt>
<wgt id='1342'> +4.5637765E-01 </wgt>
<wgt id='1343'> +4.5623535E-01 </wgt>
<wgt id='1344'> +4.2988497E-01 </wgt>
<wgt id='1345'> +4.3161554E-01 </wgt>
<wgt id='1346'> +4.2817371E-01 </wgt>
<wgt id='1347'> +4.2914147E-01 </wgt>
<wgt id='1348'> +4.3042910E-01 </wgt>
<wgt id='1349'> +4.3052462E-01 </wgt>
<wgt id='1350'> +4.2933161E-01 </wgt>
<wgt id='1351'> +4.2986480E-01 </wgt>
<wgt id='1352'> +4.2989990E-01 </wgt>
<wgt id='1353'> +4.3147985E-01 </wgt>
<wgt id='1354'> +4.2875624E-01 </wgt>
<wgt id='1355'> +4.2970074E-01 </wgt>
<wgt id='1356'> +4.2998619E-01 </wgt>
<wgt id='1357'> +4.2986205E-01 </wgt>
<wgt id='1358'> +4.2987333E-01 </wgt>
<wgt id='1359'> +4.2976170E-01 </wgt>
<wgt id='1360'> +4.3018308E-01 </wgt>
<wgt id='1361'> +4.1394370E-01 </wgt>
<wgt id='1362'> +4.4398171E-01 </wgt>
<wgt id='1363'> +4.2581547E-01 </wgt>
<wgt id='1364'> +4.3510127E-01 </wgt>
<wgt id='1365'> +4.2813144E-01 </wgt>
<wgt id='1366'> +4.3064528E-01 </wgt>
<wgt id='1367'> +4.2581631E-01 </wgt>
<wgt id='1368'> +4.3187619E-01 </wgt>
<wgt id='1369'> +4.3577470E-01 </wgt>
<wgt id='1370'> +4.2459696E-01 </wgt>
<wgt id='1371'> +4.2605612E-01 </wgt>
<wgt id='1372'> +4.3632611E-01 </wgt>
<wgt id='1373'> +4.2354712E-01 </wgt>
<wgt id='1374'> +4.3537233E-01 </wgt>
<wgt id='1375'> +4.2661161E-01 </wgt>
<wgt id='1376'> +4.3104213E-01 </wgt>
<wgt id='1377'> +4.2833357E-01 </wgt>
<wgt id='1378'> +4.3282588E-01 </wgt>
<wgt id='1379'> +4.2706993E-01 </wgt>
<wgt id='1380'> +4.3313821E-01 </wgt>
<wgt id='1381'> +4.3416996E-01 </wgt>
<wgt id='1382'> +4.3019279E-01 </wgt>
<wgt id='1383'> +4.2993918E-01 </wgt>
<wgt id='1384'> +4.3079035E-01 </wgt>
<wgt id='1385'> +4.2988497E-01 </wgt>
<wgt id='1386'> +4.3026486E-01 </wgt>
<wgt id='1387'> +4.3012776E-01 </wgt>
<wgt id='1388'> +4.2993908E-01 </wgt>
<wgt id='1389'> +4.2968982E-01 </wgt>
<wgt id='1390'> +4.2954067E-01 </wgt>
<wgt id='1391'> +4.2939754E-01 </wgt>
<wgt id='1392'> +4.4209842E-01 </wgt>
<wgt id='1393'> +4.4113915E-01 </wgt>
<wgt id='1394'> +4.4312724E-01 </wgt>
<wgt id='1395'> +4.4169895E-01 </wgt>
<wgt id='1396'> +4.4238955E-01 </wgt>
<wgt id='1397'> +4.4269140E-01 </wgt>
<wgt id='1398'> +4.4152471E-01 </wgt>
<wgt id='1399'> +4.4193305E-01 </wgt>
<wgt id='1400'> +4.4230159E-01 </wgt>
<wgt id='1401'> +4.4121087E-01 </wgt>
<wgt id='1402'> +4.4320005E-01 </wgt>
<wgt id='1403'> +4.4165761E-01 </wgt>
<wgt id='1404'> +4.4297484E-01 </wgt>
<wgt id='1405'> +4.4254790E-01 </wgt>
<wgt id='1406'> +4.4148634E-01 </wgt>
<wgt id='1407'> +4.4099155E-01 </wgt>
<wgt id='1408'> +4.4285950E-01 </wgt>
<wgt id='1409'> +4.4160275E-01 </wgt>
<wgt id='1410'> +4.4267315E-01 </wgt>
<wgt id='1411'> +4.3925136E-01 </wgt>
<wgt id='1412'> +4.4427051E-01 </wgt>
<wgt id='1413'> +4.4267106E-01 </wgt>
<wgt id='1414'> +4.4141445E-01 </wgt>
<wgt id='1415'> +4.4085958E-01 </wgt>
<wgt id='1416'> +4.4324366E-01 </wgt>
<wgt id='1417'> +4.3525320E-01 </wgt>
<wgt id='1418'> +4.5059216E-01 </wgt>
<wgt id='1419'> +4.3808805E-01 </wgt>
<wgt id='1420'> +4.4568815E-01 </wgt>
<wgt id='1421'> +4.3363313E-01 </wgt>
<wgt id='1422'> +4.5230586E-01 </wgt>
<wgt id='1423'> +4.3021491E-01 </wgt>
<wgt id='1424'> +4.5182108E-01 </wgt>
<wgt id='1425'> +4.4435653E-01 </wgt>
<wgt id='1426'> +4.3907861E-01 </wgt>
<wgt id='1427'> +4.4428293E-01 </wgt>
<wgt id='1428'> +4.3742800E-01 </wgt>
<wgt id='1429'> +4.4334412E-01 </wgt>
<wgt id='1430'> +4.4065800E-01 </wgt>
<wgt id='1431'> +4.3908714E-01 </wgt>
<wgt id='1432'> +4.4503663E-01 </wgt>
<wgt id='1433'> +4.3018519E-01 </wgt>
<wgt id='1434'> +4.5760742E-01 </wgt>
<wgt id='1435'> +4.4080953E-01 </wgt>
<wgt id='1436'> +4.4370967E-01 </wgt>
<wgt id='1437'> +4.3985508E-01 </wgt>
<wgt id='1438'> +4.4828614E-01 </wgt>
<wgt id='1439'> +4.3660501E-01 </wgt>
<wgt id='1440'> +4.5397861E-01 </wgt>
<wgt id='1441'> +4.4023556E-01 </wgt>
<wgt id='1442'> +4.4346896E-01 </wgt>
<wgt id='1443'> +4.3169487E-01 </wgt>
<wgt id='1444'> +4.3075513E-01 </wgt>
<wgt id='1445'> +4.3271348E-01 </wgt>
<wgt id='1446'> +4.3127321E-01 </wgt>
<wgt id='1447'> +4.3198322E-01 </wgt>
<wgt id='1448'> +4.3235480E-01 </wgt>
<wgt id='1449'> +4.3109937E-01 </wgt>
<wgt id='1450'> +4.3150807E-01 </wgt>
<wgt id='1451'> +4.3190596E-01 </wgt>
<wgt id='1452'> +4.3085812E-01 </wgt>
<wgt id='1453'> +4.3252294E-01 </wgt>
<wgt id='1454'> +4.3122585E-01 </wgt>
<wgt id='1455'> +4.3273644E-01 </wgt>
<wgt id='1456'> +4.3217354E-01 </wgt>
<wgt id='1457'> +4.3084935E-01 </wgt>
<wgt id='1458'> +4.3043152E-01 </wgt>
<wgt id='1459'> +4.3241231E-01 </wgt>
<wgt id='1460'> +4.3055894E-01 </wgt>
<wgt id='1461'> +4.3303884E-01 </wgt>
<wgt id='1462'> +4.2921066E-01 </wgt>
<wgt id='1463'> +4.3384833E-01 </wgt>
<wgt id='1464'> +4.3228517E-01 </wgt>
<wgt id='1465'> +4.3085412E-01 </wgt>
<wgt id='1466'> +4.3082050E-01 </wgt>
<wgt id='1467'> +4.3219031E-01 </wgt>
<wgt id='1468'> +4.4092133E-01 </wgt>
<wgt id='1469'> +4.2273707E-01 </wgt>
<wgt id='1470'> +4.2804302E-01 </wgt>
<wgt id='1471'> +4.3455406E-01 </wgt>
<wgt id='1472'> +4.2504510E-01 </wgt>
<wgt id='1473'> +4.3983086E-01 </wgt>
<wgt id='1474'> +4.2377054E-01 </wgt>
<wgt id='1475'> +4.4124833E-01 </wgt>
<wgt id='1476'> +4.3641987E-01 </wgt>
<wgt id='1477'> +4.2714753E-01 </wgt>
<wgt id='1478'> +4.3375841E-01 </wgt>
<wgt id='1479'> +4.2680115E-01 </wgt>
<wgt id='1480'> +4.3307181E-01 </wgt>
<wgt id='1481'> +4.3016898E-01 </wgt>
<wgt id='1482'> +4.2887914E-01 </wgt>
<wgt id='1483'> +4.3488095E-01 </wgt>
<wgt id='1484'> +4.1978090E-01 </wgt>
<wgt id='1485'> +4.4625358E-01 </wgt>
<wgt id='1486'> +4.3182830E-01 </wgt>
<wgt id='1487'> +4.3256271E-01 </wgt>
<wgt id='1488'> +4.2903551E-01 </wgt>
<wgt id='1489'> +4.3862804E-01 </wgt>
<wgt id='1490'> +4.2562367E-01 </wgt>
<wgt id='1491'> +4.4426457E-01 </wgt>
<wgt id='1492'> +4.2852256E-01 </wgt>
<wgt id='1493'> +4.3399642E-01 </wgt>
<wgt id='1494'> +4.2279888E-01 </wgt>
<wgt id='1495'> +4.0891049E-01 </wgt>
<wgt id='1496'> +4.1321689E-01 </wgt>
<wgt id='1497'> +4.1890463E-01 </wgt>
<wgt id='1498'> +4.3073752E-01 </wgt>
<wgt id='1499'> +4.2420784E-01 </wgt>
<wgt id='1500'> +4.2361804E-01 </wgt>
<wgt id='1501'> +4.2427922E-01 </wgt>
<wgt id='1502'> +4.2433706E-01 </wgt>
<wgt id='1503'> +4.2437749E-01 </wgt>
<wgt id='1504'> +4.2442584E-01 </wgt>
<wgt id='1505'> +4.2418582E-01 </wgt>
<wgt id='1506'> +4.2377899E-01 </wgt>
<wgt id='1507'> +4.2323436E-01 </wgt>
<wgt id='1508'> +4.2420784E-01 </wgt>
<wgt id='1509'> +4.2449123E-01 </wgt>
<wgt id='1510'> +4.2433607E-01 </wgt>
<wgt id='1511'> +4.2416677E-01 </wgt>
<wgt id='1512'> +4.2479589E-01 </wgt>
<wgt id='1513'> +4.3854225E-01 </wgt>
<wgt id='1514'> +4.3743318E-01 </wgt>
<wgt id='1515'> +4.3994634E-01 </wgt>
<wgt id='1516'> +4.3877474E-01 </wgt>
<wgt id='1517'> +4.3829087E-01 </wgt>
<wgt id='1518'> +4.3820902E-01 </wgt>
<wgt id='1519'> +4.3867010E-01 </wgt>
<wgt id='1520'> +4.3872751E-01 </wgt>
<wgt id='1521'> +4.3834892E-01 </wgt>
<wgt id='1522'> +4.3815636E-01 </wgt>
<wgt id='1523'> +4.3889644E-01 </wgt>
<wgt id='1524'> +4.4000108E-01 </wgt>
<wgt id='1525'> +4.3791741E-01 </wgt>
<wgt id='1526'> +4.3918843E-01 </wgt>
<wgt id='1527'> +4.3772920E-01 </wgt>
<wgt id='1528'> +4.3830581E-01 </wgt>
<wgt id='1529'> +4.3879352E-01 </wgt>
<wgt id='1530'> +4.3506149E-01 </wgt>
<wgt id='1531'> +4.4048904E-01 </wgt>
<wgt id='1532'> +4.4015668E-01 </wgt>
<wgt id='1533'> +4.3636304E-01 </wgt>
<wgt id='1534'> +4.3714756E-01 </wgt>
<wgt id='1535'> +4.3947977E-01 </wgt>
<wgt id='1536'> +4.3624892E-01 </wgt>
<wgt id='1537'> +4.4073566E-01 </wgt>
<wgt id='1538'> +4.3813177E-01 </wgt>
<wgt id='1539'> +4.3947721E-01 </wgt>
<wgt id='1540'> +4.3416402E-01 </wgt>
<wgt id='1541'> +4.4254924E-01 </wgt>
<wgt id='1542'> +4.4476831E-01 </wgt>
<wgt id='1543'> +4.2308843E-01 </wgt>
<wgt id='1544'> +4.3428060E-01 </wgt>
<wgt id='1545'> +4.4795918E-01 </wgt>
<wgt id='1546'> +4.3945883E-01 </wgt>
<wgt id='1547'> +4.3677402E-01 </wgt>
<wgt id='1548'> +4.3067775E-01 </wgt>
<wgt id='1549'> +4.4231510E-01 </wgt>
<wgt id='1550'> +4.4073031E-01 </wgt>
<wgt id='1551'> +4.3555248E-01 </wgt>
<wgt id='1552'> +4.3472252E-01 </wgt>
<wgt id='1553'> +4.4140940E-01 </wgt>
<wgt id='1554'> +4.5069677E-01 </wgt>
<wgt id='1555'> +4.2087167E-01 </wgt>
<wgt id='1556'> +4.3909950E-01 </wgt>
<wgt id='1557'> +4.3670603E-01 </wgt>
<wgt id='1558'> +4.4125309E-01 </wgt>
<wgt id='1559'> +4.3725081E-01 </wgt>
<wgt id='1560'> +4.3955193E-01 </wgt>
<wgt id='1561'> +4.3808495E-01 </wgt>
<wgt id='1562'> +4.4452452E-01 </wgt>
<wgt id='1563'> +4.3402552E-01 </wgt>
<wgt id='1564'> +4.3854225E-01 </wgt>
<wgt id='1565'> +4.3047457E-01 </wgt>
<wgt id='1566'> +4.5221099E-01 </wgt>
<wgt id='1567'> +4.4131063E-01 </wgt>
<wgt id='1568'> +4.4495915E-01 </wgt>
<wgt id='1569'> +4.4455667E-01 </wgt>
<wgt id='1570'> +4.4411668E-01 </wgt>
<wgt id='1571'> +4.4307791E-01 </wgt>
<wgt id='1572'> +4.4227311E-01 </wgt>
<wgt id='1573'> +4.3979029E-01 </wgt>
<wgt id='1574'> +4.3799509E-01 </wgt>
<wgt id='1575'> +4.3669686E-01 </wgt>
<wgt id='1576'> +4.4131063E-01 </wgt>
<wgt id='1577'> +4.4107809E-01 </wgt>
<wgt id='1578'> +4.4093800E-01 </wgt>
<wgt id='1579'> +4.4158541E-01 </wgt>
<wgt id='1580'> +4.4189217E-01 </wgt>
<wgt id='1581'> +4.2636545E-01 </wgt>
<wgt id='1582'> +4.2790773E-01 </wgt>
<wgt id='1583'> +4.2462016E-01 </wgt>
<wgt id='1584'> +4.2458885E-01 </wgt>
<wgt id='1585'> +4.2407884E-01 </wgt>
<wgt id='1586'> +4.1230620E-01 </wgt>
<wgt id='1587'> +4.3077426E-01 </wgt>
<wgt id='1588'> +4.2184444E-01 </wgt>
<wgt id='1589'> +4.2590982E-01 </wgt>
<wgt id='1590'> +4.3427944E-01 </wgt>
<wgt id='1591'> +4.2907124E-01 </wgt>
<wgt id='1592'> +4.1587195E-01 </wgt>
<wgt id='1593'> +4.2486699E-01 </wgt>
<wgt id='1594'> +4.2380507E-01 </wgt>
<wgt id='1595'> +4.2877587E-01 </wgt>
<wgt id='1596'> +4.2743475E-01 </wgt>
<wgt id='1597'> +4.2890689E-01 </wgt>
<wgt id='1598'> +4.2345109E-01 </wgt>
<wgt id='1599'> +4.2108851E-01 </wgt>
<wgt id='1600'> +4.2343958E-01 </wgt>
<wgt id='1601'> +4.2370682E-01 </wgt>
<wgt id='1602'> +4.2410173E-01 </wgt>
<wgt id='1603'> +4.3032153E-01 </wgt>
<wgt id='1604'> +4.2329687E-01 </wgt>
<wgt id='1605'> +4.2287803E-01 </wgt>
<wgt id='1606'> +4.2468017E-01 </wgt>
<wgt id='1607'> +4.2293576E-01 </wgt>
<wgt id='1608'> +4.2572054E-01 </wgt>
<wgt id='1609'> +4.2245509E-01 </wgt>
<wgt id='1610'> +4.2826672E-01 </wgt>
<wgt id='1611'> +4.1554436E-01 </wgt>
<wgt id='1612'> +3.9336764E-01 </wgt>
<wgt id='1613'> +3.9328439E-01 </wgt>
<wgt id='1614'> +3.9235927E-01 </wgt>
<wgt id='1615'> +3.9205370E-01 </wgt>
<wgt id='1616'> +3.9476019E-01 </wgt>
<wgt id='1617'> +3.9386857E-01 </wgt>
<wgt id='1618'> +3.9283244E-01 </wgt>
<wgt id='1619'> +3.9286142E-01 </wgt>
<wgt id='1620'> +3.9154794E-01 </wgt>
<wgt id='1621'> +3.9449262E-01 </wgt>
<wgt id='1622'> +3.9155657E-01 </wgt>
<wgt id='1623'> +3.9044002E-01 </wgt>
<wgt id='1624'> +3.9254439E-01 </wgt>
<wgt id='1625'> +3.9056021E-01 </wgt>
<wgt id='1626'> +3.9300631E-01 </wgt>
<wgt id='1627'> +3.9415241E-01 </wgt>
<wgt id='1628'> +3.9620415E-01 </wgt>
<wgt id='1629'> +3.9242356E-01 </wgt>
<wgt id='1630'> +3.9155663E-01 </wgt>
<wgt id='1631'> +3.9251713E-01 </wgt>
<wgt id='1632'> +3.9271398E-01 </wgt>
<wgt id='1633'> +3.9534215E-01 </wgt>
<wgt id='1634'> +3.9500393E-01 </wgt>
<wgt id='1635'> +3.9209182E-01 </wgt>
<wgt id='1636'> +3.9515947E-01 </wgt>
<wgt id='1637'> +3.9441649E-01 </wgt>
<wgt id='1638'> +3.9363004E-01 </wgt>
<wgt id='1639'> +3.9377044E-01 </wgt>
<wgt id='1640'> +3.9218675E-01 </wgt>
<wgt id='1641'> +3.9319843E-01 </wgt>
<wgt id='1642'> +3.9690497E-01 </wgt>
<wgt id='1643'> +3.9398225E-01 </wgt>
<wgt id='1644'> +3.9319740E-01 </wgt>
<wgt id='1645'> +3.9135772E-01 </wgt>
<wgt id='1646'> +3.9322033E-01 </wgt>
<wgt id='1647'> +3.9578972E-01 </wgt>
<wgt id='1648'> +3.9410467E-01 </wgt>
<wgt id='1649'> +3.9301166E-01 </wgt>
<wgt id='1650'> +3.9230492E-01 </wgt>
<wgt id='1651'> +3.9332968E-01 </wgt>
<wgt id='1652'> +3.9578362E-01 </wgt>
<wgt id='1653'> +3.9507565E-01 </wgt>
<wgt id='1654'> +3.9291733E-01 </wgt>
<wgt id='1655'> +3.8853116E-01 </wgt>
<wgt id='1656'> +3.9192146E-01 </wgt>
<wgt id='1657'> +3.9276522E-01 </wgt>
<wgt id='1658'> +3.9578868E-01 </wgt>
<wgt id='1659'> +3.9516790E-01 </wgt>
<wgt id='1660'> +3.9071595E-01 </wgt>
<wgt id='1661'> +3.9117986E-01 </wgt>
<wgt id='1662'> +3.9471235E-01 </wgt>
<wgt id='1663'> +3.9105665E-01 </wgt>
<wgt id='1664'> +3.9297365E-01 </wgt>
<wgt id='1665'> +3.9342489E-01 </wgt>
<wgt id='1666'> +3.9350032E-01 </wgt>
<wgt id='1667'> +3.9448697E-01 </wgt>
<wgt id='1668'> +3.9210126E-01 </wgt>
<wgt id='1669'> +3.9197467E-01 </wgt>
<wgt id='1670'> +3.9286318E-01 </wgt>
<wgt id='1671'> +3.9454430E-01 </wgt>
<wgt id='1672'> +3.9369049E-01 </wgt>
<wgt id='1673'> +3.9305405E-01 </wgt>
<wgt id='1674'> +3.9332458E-01 </wgt>
<wgt id='1675'> +3.9280164E-01 </wgt>
<wgt id='1676'> +3.9326741E-01 </wgt>
<wgt id='1677'> +3.9278101E-01 </wgt>
<wgt id='1678'> +3.9332233E-01 </wgt>
<wgt id='1679'> +3.9341852E-01 </wgt>
<wgt id='1680'> +3.9381167E-01 </wgt>
<wgt id='1681'> +3.9395713E-01 </wgt>
<wgt id='1682'> +3.9242299E-01 </wgt>
<wgt id='1683'> +3.9246852E-01 </wgt>
<wgt id='1684'> +3.9353470E-01 </wgt>
<wgt id='1685'> +3.9279218E-01 </wgt>
<wgt id='1686'> +3.9220376E-01 </wgt>
<wgt id='1687'> +3.9242110E-01 </wgt>
<wgt id='1688'> +3.9448797E-01 </wgt>
<wgt id='1689'> +3.9118708E-01 </wgt>
<wgt id='1690'> +3.9365876E-01 </wgt>
<wgt id='1691'> +3.9404409E-01 </wgt>
<wgt id='1692'> +3.9350875E-01 </wgt>
<wgt id='1693'> +3.9378404E-01 </wgt>
<wgt id='1694'> +3.9385150E-01 </wgt>
<wgt id='1695'> +3.9314443E-01 </wgt>
<wgt id='1696'> +3.9299524E-01 </wgt>
<wgt id='1697'> +3.9327070E-01 </wgt>
<wgt id='1698'> +3.9295182E-01 </wgt>
<wgt id='1699'> +3.9304817E-01 </wgt>
<wgt id='1700'> +3.9344079E-01 </wgt>
<wgt id='1701'> +3.9297273E-01 </wgt>
<wgt id='1702'> +3.9350451E-01 </wgt>
<wgt id='1703'> +3.9329766E-01 </wgt>
<wgt id='1704'> +3.9312648E-01 </wgt>
<wgt id='1705'> +3.9370725E-01 </wgt>
<wgt id='1706'> +3.9347216E-01 </wgt>
<wgt id='1707'> +3.9374849E-01 </wgt>
<wgt id='1708'> +3.9318751E-01 </wgt>
<wgt id='1709'> +3.9389104E-01 </wgt>
<wgt id='1710'> +3.9324799E-01 </wgt>
<wgt id='1711'> +3.9311428E-01 </wgt>
<wgt id='1712'> +3.9358738E-01 </wgt>
<wgt id='1713'> +3.8454606E-01 </wgt>
<wgt id='1714'> +4.0400580E-01 </wgt>
<wgt id='1715'> +4.0514198E-01 </wgt>
<wgt id='1716'> +3.9635496E-01 </wgt>
<wgt id='1717'> +4.0456054E-01 </wgt>
<wgt id='1718'> +4.1192814E-01 </wgt>
<wgt id='1719'> +4.0251586E-01 </wgt>
<wgt id='1720'> +4.1722928E-01 </wgt>
<wgt id='1721'> +4.3213618E-01 </wgt>
<wgt id='1722'> +3.9121972E-01 </wgt>
<wgt id='1723'> +4.1179734E-01 </wgt>
<wgt id='1724'> +4.0749524E-01 </wgt>
<wgt id='1725'> +4.0870116E-01 </wgt>
<wgt id='1726'> +4.0305527E-01 </wgt>
<wgt id='1727'> +4.0807417E-01 </wgt>
<wgt id='1728'> +3.9667008E-01 </wgt>
<wgt id='1729'> +4.0123278E-01 </wgt>
<wgt id='1730'> +4.0832858E-01 </wgt>
<wgt id='1731'> +3.9757605E-01 </wgt>
<wgt id='1732'> +4.0708009E-01 </wgt>
<wgt id='1733'> +4.0865881E-01 </wgt>
<wgt id='1734'> +4.1961527E-01 </wgt>
<wgt id='1735'> +3.9080955E-01 </wgt>
<wgt id='1736'> +3.8316121E-01 </wgt>
<wgt id='1737'> +3.9264733E-01 </wgt>
<wgt id='1738'> +3.9559924E-01 </wgt>
<wgt id='1739'> +4.3357451E-01 </wgt>
<wgt id='1740'> +4.0259305E-01 </wgt>
<wgt id='1741'> +4.0002500E-01 </wgt>
<wgt id='1742'> +4.0203702E-01 </wgt>
<wgt id='1743'> +4.0115061E-01 </wgt>
<wgt id='1744'> +4.0545059E-01 </wgt>
<wgt id='1745'> +4.0264934E-01 </wgt>
<wgt id='1746'> +3.8652739E-01 </wgt>
<wgt id='1747'> +4.0248786E-01 </wgt>
<wgt id='1748'> +4.0446800E-01 </wgt>
<wgt id='1749'> +3.9061210E-01 </wgt>
<wgt id='1750'> +4.0020169E-01 </wgt>
<wgt id='1751'> +4.1842495E-01 </wgt>
<wgt id='1752'> +4.2197227E-01 </wgt>
<wgt id='1753'> +3.9415390E-01 </wgt>
<wgt id='1754'> +4.0814521E-01 </wgt>
<wgt id='1755'> +3.9420043E-01 </wgt>
<wgt id='1756'> +4.2627614E-01 </wgt>
<wgt id='1757'> +4.1643163E-01 </wgt>
<wgt id='1758'> +4.2256723E-01 </wgt>
<wgt id='1759'> +3.9444792E-01 </wgt>
<wgt id='1760'> +4.2447601E-01 </wgt>
<wgt id='1761'> +4.0190318E-01 </wgt>
<wgt id='1762'> +4.0807417E-01 </wgt>
<wgt id='1763'> +4.1475569E-01 </wgt>
<wgt id='1764'> +4.0267410E-01 </wgt>
<wgt id='1765'> +4.1121598E-01 </wgt>
<wgt id='1766'> +4.0047940E-01 </wgt>
<wgt id='1767'> +3.9730983E-01 </wgt>
<wgt id='1768'> +4.1268768E-01 </wgt>
<wgt id='1769'> +3.9454547E-01 </wgt>
<wgt id='1770'> +3.8709686E-01 </wgt>
<wgt id='1771'> +4.1493750E-01 </wgt>
<wgt id='1772'> +4.0453048E-01 </wgt>
<wgt id='1773'> +4.0067722E-01 </wgt>
<wgt id='1774'> +4.1501377E-01 </wgt>
<wgt id='1775'> +3.9868533E-01 </wgt>
<wgt id='1776'> +4.1154241E-01 </wgt>
<wgt id='1777'> +4.0521391E-01 </wgt>
<wgt id='1778'> +3.8923041E-01 </wgt>
<wgt id='1779'> +4.1099766E-01 </wgt>
<wgt id='1780'> +4.1895228E-01 </wgt>
<wgt id='1781'> +4.0891714E-01 </wgt>
<wgt id='1782'> +3.8478154E-01 </wgt>
<wgt id='1783'> +4.0975010E-01 </wgt>
<wgt id='1784'> +4.0050247E-01 </wgt>
<wgt id='1785'> +4.0088083E-01 </wgt>
<wgt id='1786'> +4.1652474E-01 </wgt>
<wgt id='1787'> +3.9640161E-01 </wgt>
<wgt id='1788'> +3.9958385E-01 </wgt>
<wgt id='1789'> +4.0702718E-01 </wgt>
<wgt id='1790'> +4.0945392E-01 </wgt>
<wgt id='1791'> +3.8623949E-01 </wgt>
<wgt id='1792'> +4.1046532E-01 </wgt>
<wgt id='1793'> +4.0572126E-01 </wgt>
<wgt id='1794'> +4.1711064E-01 </wgt>
<wgt id='1795'> +3.9358717E-01 </wgt>
<wgt id='1796'> +3.9921542E-01 </wgt>
<wgt id='1797'> +4.1489276E-01 </wgt>
<wgt id='1798'> +3.9181589E-01 </wgt>
<wgt id='1799'> +3.9567233E-01 </wgt>
<wgt id='1800'> +4.1833134E-01 </wgt>
<wgt id='1801'> +4.0337070E-01 </wgt>
<wgt id='1802'> +4.1922481E-01 </wgt>
<wgt id='1803'> +4.0738366E-01 </wgt>
<wgt id='1804'> +4.0765192E-01 </wgt>
<wgt id='1805'> +4.1077056E-01 </wgt>
<wgt id='1806'> +4.0562601E-01 </wgt>
<wgt id='1807'> +4.1374146E-01 </wgt>
<wgt id='1808'> +3.9158092E-01 </wgt>
<wgt id='1809'> +4.1699447E-01 </wgt>
<wgt id='1810'> +4.0932948E-01 </wgt>
<wgt id='1811'> +4.1282352E-01 </wgt>
<wgt id='1812'> +3.9564086E-01 </wgt>
<wgt id='1813'> +4.0408351E-01 </wgt>
<wgt id='1814'> +3.8663771E-01 </wgt>
<wgt id='1815'> +4.0874745E-01 </wgt>
<wgt id='1816'> +4.1816054E-01 </wgt>
<wgt id='1817'> +4.2039115E-01 </wgt>
<wgt id='1818'> +4.3871202E-01 </wgt>
<wgt id='1819'> +3.8747850E-01 </wgt>
<wgt id='1820'> +4.1431886E-01 </wgt>
<wgt id='1821'> +4.1373654E-01 </wgt>
<wgt id='1822'> +4.2652405E-01 </wgt>
<wgt id='1823'> +4.3103103E-01 </wgt>
<wgt id='1824'> +4.2238957E-01 </wgt>
<wgt id='1825'> +3.9680207E-01 </wgt>
<wgt id='1826'> +4.0779019E-01 </wgt>
<wgt id='1827'> +4.4771544E-01 </wgt>
<wgt id='1828'> +4.1905853E-01 </wgt>
<wgt id='1829'> +4.5243536E-01 </wgt>
<wgt id='1830'> +4.3454093E-01 </wgt>
<wgt id='1831'> +4.4240696E-01 </wgt>
<wgt id='1832'> +3.9907757E-01 </wgt>
<wgt id='1833'> +4.5106754E-01 </wgt>
<wgt id='1834'> +4.1433234E-01 </wgt>
<wgt id='1835'> +4.2385184E-01 </wgt>
<wgt id='1836'> +3.8799413E-01 </wgt>
<wgt id='1837'> +4.3554192E-01 </wgt>
<wgt id='1838'> +3.9591977E-01 </wgt>
<wgt id='1839'> +3.9419635E-01 </wgt>
<wgt id='1840'> +3.6914051E-01 </wgt>
<wgt id='1841'> +4.2191304E-01 </wgt>
<wgt id='1842'> +4.1198691E-01 </wgt>
<wgt id='1843'> +4.4757713E-01 </wgt>
<wgt id='1844'> +4.5252024E-01 </wgt>
<wgt id='1845'> +4.2514274E-01 </wgt>
<wgt id='1846'> +3.9894457E-01 </wgt>
<wgt id='1847'> +4.0569284E-01 </wgt>
<wgt id='1848'> +4.1523949E-01 </wgt>
<wgt id='1849'> +4.1873290E-01 </wgt>
<wgt id='1850'> +3.9371038E-01 </wgt>
<wgt id='1851'> +4.0206033E-01 </wgt>
<wgt id='1852'> +4.0572959E-01 </wgt>
<wgt id='1853'> +4.4711610E-01 </wgt>
<wgt id='1854'> +4.1241114E-01 </wgt>
<wgt id='1855'> +4.1657652E-01 </wgt>
<wgt id='1856'> +4.0796162E-01 </wgt>
<wgt id='1857'> +4.2722616E-01 </wgt>
<wgt id='1858'> +4.3236187E-01 </wgt>
<wgt id='1859'> +3.8763383E-01 </wgt>
<wgt id='1860'> +3.8580404E-01 </wgt>
<wgt id='1861'> +3.9458487E-01 </wgt>
<wgt id='1862'> +3.9043034E-01 </wgt>
<wgt id='1863'> +4.3329731E-01 </wgt>
<wgt id='1864'> +4.3232857E-01 </wgt>
<wgt id='1865'> +4.2922091E-01 </wgt>
<wgt id='1866'> +4.2718191E-01 </wgt>
<wgt id='1867'> +4.1625492E-01 </wgt>
<wgt id='1868'> +3.9961395E-01 </wgt>
<wgt id='1869'> +4.0225999E-01 </wgt>
<wgt id='1870'> +4.4686161E-01 </wgt>
<wgt id='1871'> +4.1190229E-01 </wgt>
<wgt id='1872'> +4.3837795E-01 </wgt>
<wgt id='1873'> +4.2305817E-01 </wgt>
<wgt id='1874'> +4.2605746E-01 </wgt>
<wgt id='1875'> +4.1308594E-01 </wgt>
<wgt id='1876'> +4.1436151E-01 </wgt>
<wgt id='1877'> +4.2798710E-01 </wgt>
<wgt id='1878'> +4.0279881E-01 </wgt>
<wgt id='1879'> +4.2579195E-01 </wgt>
<wgt id='1880'> +4.3498399E-01 </wgt>
<wgt id='1881'> +3.6626068E-01 </wgt>
<wgt id='1882'> +4.0944294E-01 </wgt>
<wgt id='1883'> +4.0784503E-01 </wgt>
<wgt id='1884'> +4.1467695E-01 </wgt>
<wgt id='1885'> +4.2533031E-01 </wgt>
<wgt id='1886'> +4.2934235E-01 </wgt>
<wgt id='1887'> +3.8906663E-01 </wgt>
<wgt id='1888'> +4.1192444E-01 </wgt>
<wgt id='1889'> +4.3549936E-01 </wgt>
<wgt id='1890'> +4.2870967E-01 </wgt>
<wgt id='1891'> +4.3758495E-01 </wgt>
<wgt id='1892'> +3.8152176E-01 </wgt>
<wgt id='1893'> +4.1023906E-01 </wgt>
<wgt id='1894'> +4.3908242E-01 </wgt>
<wgt id='1895'> +4.2329093E-01 </wgt>
<wgt id='1896'> +4.2126362E-01 </wgt>
<wgt id='1897'> +3.9565872E-01 </wgt>
<wgt id='1898'> +4.2985151E-01 </wgt>
<wgt id='1899'> +4.2357180E-01 </wgt>
<wgt id='1900'> +4.2485203E-01 </wgt>
<wgt id='1901'> +4.2982748E-01 </wgt>
<wgt id='1902'> +4.3732349E-01 </wgt>
<wgt id='1903'> +4.1311452E-01 </wgt>
<wgt id='1904'> +4.3839004E-01 </wgt>
<wgt id='1905'> +4.2459960E-01 </wgt>
<wgt id='1906'> +4.2200680E-01 </wgt>
<wgt id='1907'> +4.3885618E-01 </wgt>
<wgt id='1908'> +3.9570138E-01 </wgt>
<wgt id='1909'> +4.3208374E-01 </wgt>
<wgt id='1910'> +4.1878626E-01 </wgt>
<wgt id='1911'> +4.5811823E-01 </wgt>
<wgt id='1912'> +4.0092284E-01 </wgt>
<wgt id='1913'> +4.1042822E-01 </wgt>
<wgt id='1914'> +3.8969869E-01 </wgt>
<wgt id='1915'> +4.3989293E-01 </wgt>
<wgt id='1916'> +4.2597634E-01 </wgt>
<wgt id='1917'> +3.9723361E-01 </wgt>
<wgt id='1918'> +3.9627268E-01 </wgt>
<wgt id='1919'> +4.1816054E-01 </wgt>
<wgt id='1920'> +4.2039115E-01 </wgt>
<wgt id='1921'> +4.3871202E-01 </wgt>
<wgt id='1922'> +3.8747850E-01 </wgt>
<wgt id='1923'> +4.1431886E-01 </wgt>
<wgt id='1924'> +4.1373654E-01 </wgt>
<wgt id='1925'> +4.2652405E-01 </wgt>
<wgt id='1926'> +4.3103103E-01 </wgt>
<wgt id='1927'> +4.2238957E-01 </wgt>
<wgt id='1928'> +3.9680207E-01 </wgt>
<wgt id='1929'> +4.0779019E-01 </wgt>
<wgt id='1930'> +4.4771544E-01 </wgt>
<wgt id='1931'> +4.1905853E-01 </wgt>
<wgt id='1932'> +4.5243536E-01 </wgt>
<wgt id='1933'> +4.3454093E-01 </wgt>
<wgt id='1934'> +4.4240696E-01 </wgt>
<wgt id='1935'> +3.9907757E-01 </wgt>
<wgt id='1936'> +4.5106754E-01 </wgt>
<wgt id='1937'> +4.1433234E-01 </wgt>
<wgt id='1938'> +4.2385184E-01 </wgt>
<wgt id='1939'> +3.8799413E-01 </wgt>
<wgt id='1940'> +4.3554192E-01 </wgt>
<wgt id='1941'> +3.9591977E-01 </wgt>
<wgt id='1942'> +3.9419635E-01 </wgt>
<wgt id='1943'> +3.6914051E-01 </wgt>
<wgt id='1944'> +4.2191304E-01 </wgt>
<wgt id='1945'> +4.1198691E-01 </wgt>
<wgt id='1946'> +4.4757713E-01 </wgt>
<wgt id='1947'> +4.5252024E-01 </wgt>
<wgt id='1948'> +4.2514274E-01 </wgt>
<wgt id='1949'> +3.9894457E-01 </wgt>
<wgt id='1950'> +4.0569284E-01 </wgt>
<wgt id='1951'> +4.1523949E-01 </wgt>
<wgt id='1952'> +4.1873290E-01 </wgt>
<wgt id='1953'> +3.9371038E-01 </wgt>
<wgt id='1954'> +4.0206033E-01 </wgt>
<wgt id='1955'> +4.0572959E-01 </wgt>
<wgt id='1956'> +4.4711610E-01 </wgt>
<wgt id='1957'> +4.1241114E-01 </wgt>
<wgt id='1958'> +4.1657652E-01 </wgt>
<wgt id='1959'> +4.0796162E-01 </wgt>
<wgt id='1960'> +4.2722616E-01 </wgt>
<wgt id='1961'> +4.3236187E-01 </wgt>
<wgt id='1962'> +3.8763383E-01 </wgt>
<wgt id='1963'> +3.8580404E-01 </wgt>
<wgt id='1964'> +3.9458487E-01 </wgt>
<wgt id='1965'> +3.9043034E-01 </wgt>
<wgt id='1966'> +4.3329731E-01 </wgt>
<wgt id='1967'> +4.3232857E-01 </wgt>
<wgt id='1968'> +4.2922091E-01 </wgt>
<wgt id='1969'> +4.2718191E-01 </wgt>
<wgt id='1970'> +4.1625492E-01 </wgt>
<wgt id='1971'> +3.9961395E-01 </wgt>
<wgt id='1972'> +4.0225999E-01 </wgt>
<wgt id='1973'> +4.4686161E-01 </wgt>
<wgt id='1974'> +4.1190229E-01 </wgt>
<wgt id='1975'> +4.3837795E-01 </wgt>
<wgt id='1976'> +4.2305817E-01 </wgt>
<wgt id='1977'> +4.2605746E-01 </wgt>
<wgt id='1978'> +4.1308594E-01 </wgt>
<wgt id='1979'> +4.1436151E-01 </wgt>
<wgt id='1980'> +4.2798710E-01 </wgt>
<wgt id='1981'> +4.0279881E-01 </wgt>
<wgt id='1982'> +4.2579195E-01 </wgt>
<wgt id='1983'> +4.3498399E-01 </wgt>
<wgt id='1984'> +3.6626068E-01 </wgt>
<wgt id='1985'> +4.0944294E-01 </wgt>
<wgt id='1986'> +4.0784503E-01 </wgt>
<wgt id='1987'> +4.1467695E-01 </wgt>
<wgt id='1988'> +4.2533031E-01 </wgt>
<wgt id='1989'> +4.2934235E-01 </wgt>
<wgt id='1990'> +3.8906663E-01 </wgt>
<wgt id='1991'> +4.1192444E-01 </wgt>
<wgt id='1992'> +4.3549936E-01 </wgt>
<wgt id='1993'> +4.2870967E-01 </wgt>
<wgt id='1994'> +4.3758495E-01 </wgt>
<wgt id='1995'> +3.8152176E-01 </wgt>
<wgt id='1996'> +4.1023906E-01 </wgt>
<wgt id='1997'> +4.3908242E-01 </wgt>
<wgt id='1998'> +4.2329093E-01 </wgt>
<wgt id='1999'> +4.2126362E-01 </wgt>
<wgt id='2000'> +3.9565872E-01 </wgt>
<wgt id='2001'> +4.2985151E-01 </wgt>
<wgt id='2002'> +4.2357180E-01 </wgt>
<wgt id='2003'> +4.2485203E-01 </wgt>
<wgt id='2004'> +4.2982748E-01 </wgt>
<wgt id='2005'> +4.3732349E-01 </wgt>
<wgt id='2006'> +4.1311452E-01 </wgt>
<wgt id='2007'> +4.3839004E-01 </wgt>
<wgt id='2008'> +4.2459960E-01 </wgt>
<wgt id='2009'> +4.2200680E-01 </wgt>
<wgt id='2010'> +4.3885618E-01 </wgt>
<wgt id='2011'> +3.9570138E-01 </wgt>
<wgt id='2012'> +4.3208374E-01 </wgt>
<wgt id='2013'> +4.1878626E-01 </wgt>
<wgt id='2014'> +4.5811823E-01 </wgt>
<wgt id='2015'> +4.0092284E-01 </wgt>
<wgt id='2016'> +4.1042822E-01 </wgt>
<wgt id='2017'> +3.8969869E-01 </wgt>
<wgt id='2018'> +4.3989293E-01 </wgt>
<wgt id='2019'> +4.2597634E-01 </wgt>
<wgt id='2020'> +4.1286220E-01 </wgt>
<wgt id='2021'> +4.2406741E-01 </wgt>
<wgt id='2022'> +4.1409369E-01 </wgt>
</rwgt>
</event>
<event>
13      1 +3.9556008E-01 1.15025200e+02 7.81860800e-03 1.11017900e-01
       21 -1    0    0  502  503 +0.0000000000e+00 +0.0000000000e+00 +6.8339241212e+01 6.8339241212e+01 0.0000000000e+00 0.0000e+00 -1.0000e+00
        2 -1    0    0  501    0 +0.0000000000e+00 +0.0000000000e+00 -2.4248629716e+03 2.4248629716e+03 2.5500000000e-03 0.0000e+00 -1.0000e+00
  8000001  2    1    2  502    0 -1.3340595683e+01 +7.0595955008e+01 -1.7834496484e+03 1.8830434797e+03 5.9999861451e+02 0.0000e+00 0.0000e+00
        1  1    1    2  501    0 +1.3664997017e+00 -8.8231956062e+01 -5.8045331287e+02 5.8712246920e+02 5.0400000000e-03 0.0000e+00 -1.0000e+00
       -5  1    1    2    0  503 +1.1974095982e+01 +1.7636001054e+01 +7.3792308861e+00 2.3036263954e+01 4.6700000000e+00 0.0000e+00 1.0000e+00
        6  2    3    3  502    0 -2.5066751818e+02 +1.1019091426e+02 -1.2490951357e+03 1.2904104773e+03 1.7304421257e+02 0.0000e+00 0.0000e+00
        5  1    6    6  502    0 -1.8202151779e+02 +8.4162633603e+01 -9.7061607108e+02 9.9112690821e+02 4.6700000000e+00 0.0000e+00 -1.0000e+00
       24  2    6    6    0    0 -6.8646000389e+01 +2.6028280656e+01 -2.7847906464e+02 2.9928356906e+02 8.1426780010e+01 0.0000e+00 0.0000e+00
        2  1    8    8  504    0 -5.4268511971e+01 +3.6367863751e+01 -9.7029592565e+01 1.1697193999e+02 2.5500000000e-03 0.0000e+00 -1.0000e+00
       -1  1    8    8    0  504 -1.4377488418e+01 -1.0339583095e+01 -1.8144947208e+02 1.8231162907e+02 5.0400000000e-03 0.0000e+00 1.0000e+00
       23  2    3    3    0    0 +2.3732692250e+02 -3.9594959251e+01 -5.3435451267e+02 5.9263300238e+02 8.8245687475e+01 0.0000e+00 0.0000e+00
        4  1   11   11  505    0 +1.9914758078e+02 -4.1509476533e+01 -3.5420026501e+02 4.0846326176e+02 1.2700000000e+00 0.0000e+00 1.0000e+00
       -4  1   11   11    0  505 +3.8179341716e+01 +1.9145172819e+00 -1.8015424766e+02 1.8416974062e+02 1.2700000000e+00 0.0000e+00 -1.0000e+00
<mgrwt>
<rscale>  1 0.10012265e+03</rscale>
<asrwt>0</asrwt>
<pdfrwt beam="1">  1       21 0.10513729e-01 0.11502522e+03</pdfrwt>
<pdfrwt beam="2">  1        2 0.37305586e+00 0.87150846e+02</pdfrwt>
<totfact> 0.51041391e+03</totfact>
</mgrwt>
<rwgt>
<wgt id='1001'> +3.9556008E-01 </wgt>
<wgt id='1002'> +2.5850556E-01 </wgt>
<wgt id='1003'> +2.5849509E-01 </wgt>
<wgt id='1004'> +2.9848219E-01 </wgt>
<wgt id='1005'> +2.4611026E-01 </wgt>
<wgt id='1006'> +3.5709062E-01 </wgt>
<wgt id='1007'> +2.3874360E-01 </wgt>
<wgt id='1008'> +2.3873439E-01 </wgt>
<wgt id='1009'> +2.7368052E-01 </wgt>
<wgt id='1010'> +2.2781760E-01 </wgt>
<wgt id='1011'> +4.4366694E-01 </wgt>
<wgt id='1012'> +2.8193269E-01 </wgt>
<wgt id='1013'> +2.8192061E-01 </wgt>
<wgt id='1014'> +3.2837447E-01 </wgt>
<wgt id='1015'> +2.6768148E-01 </wgt>
<wgt id='1016'> +3.7294378E-01 </wgt>
<wgt id='1017'> +2.4440563E-01 </wgt>
<wgt id='1018'> +2.4439571E-01 </wgt>
<wgt id='1019'> +2.8192061E-01 </wgt>
<wgt id='1020'> +2.3268216E-01 </wgt>
<wgt id='1021'> +3.3667381E-01 </wgt>
<wgt id='1022'> +2.2572156E-01 </wgt>
<wgt id='1023'> +2.2571285E-01 </wgt>
<wgt id='1024'> +2.5849509E-01 </wgt>
<wgt id='1025'> +2.1538758E-01 </wgt>
<wgt id='1026'> +4.1830010E-01 </wgt>
<wgt id='1027'> +2.6655494E-01 </wgt>
<wgt id='1028'> +2.6654351E-01 </wgt>
<wgt id='1029'> +3.1015427E-01 </wgt>
<wgt id='1030'> +2.5307643E-01 </wgt>
<wgt id='1031'> +4.1865651E-01 </wgt>
<wgt id='1032'> +2.7369171E-01 </wgt>
<wgt id='1033'> +2.7368052E-01 </wgt>
<wgt id='1034'> +3.1578517E-01 </wgt>
<wgt id='1035'> +2.6046314E-01 </wgt>
<wgt id='1036'> +3.7794085E-01 </wgt>
<wgt id='1037'> +2.5276882E-01 </wgt>
<wgt id='1038'> +2.5275898E-01 </wgt>
<wgt id='1039'> +2.8954575E-01 </wgt>
<wgt id='1040'> +2.4110368E-01 </wgt>
<wgt id='1041'> +4.6957229E-01 </wgt>
<wgt id='1042'> +2.9849509E-01 </wgt>
<wgt id='1043'> +2.9848219E-01 </wgt>
<wgt id='1044'> +3.4741029E-01 </wgt>
<wgt id='1045'> +2.8329237E-01 </wgt>
<wgt id='1046'> +3.9556008E-01 </wgt>
<wgt id='1047'> +3.9556008E-01 </wgt>
<wgt id='1048'> +3.9556008E-01 </wgt>
<wgt id='1049'> +3.9614972E-01 </wgt>
<wgt id='1050'> +3.9502695E-01 </wgt>
<wgt id='1051'> +3.9743734E-01 </wgt>
<wgt id='1052'> +3.9584606E-01 </wgt>
<wgt id='1053'> +3.9746120E-01 </wgt>
<wgt id='1054'> +3.9552389E-01 </wgt>
<wgt id='1055'> +3.9672015E-01 </wgt>
<wgt id='1056'> +3.9692540E-01 </wgt>
<wgt id='1057'> +3.9551982E-01 </wgt>
<wgt id='1058'> +3.9601600E-01 </wgt>
<wgt id='1059'> +3.9361724E-01 </wgt>
<wgt id='1060'> +3.9591180E-01 </wgt>
<wgt id='1061'> +3.9520143E-01 </wgt>
<wgt id='1062'> +3.9551723E-01 </wgt>
<wgt id='1063'> +3.9510988E-01 </wgt>
<wgt id='1064'> +3.9414234E-01 </wgt>
<wgt id='1065'> +3.9500123E-01 </wgt>
<wgt id='1066'> +3.9590172E-01 </wgt>
<wgt id='1067'> +3.9562072E-01 </wgt>
<wgt id='1068'> +3.9453917E-01 </wgt>
<wgt id='1069'> +3.9647701E-01 </wgt>
<wgt id='1070'> +3.9607344E-01 </wgt>
<wgt id='1071'> +3.9458419E-01 </wgt>
<wgt id='1072'> +3.9633851E-01 </wgt>
<wgt id='1073'> +3.9615782E-01 </wgt>
<wgt id='1074'> +3.9615402E-01 </wgt>
<wgt id='1075'> +3.9379554E-01 </wgt>
<wgt id='1076'> +3.9711200E-01 </wgt>
<wgt id='1077'> +3.9785356E-01 </wgt>
<wgt id='1078'> +3.9480396E-01 </wgt>
<wgt id='1079'> +3.9765453E-01 </wgt>
<wgt id='1080'> +3.9653281E-01 </wgt>
<wgt id='1081'> +3.9530748E-01 </wgt>
<wgt id='1082'> +3.9652506E-01 </wgt>
<wgt id='1083'> +3.9506205E-01 </wgt>
<wgt id='1084'> +3.9335516E-01 </wgt>
<wgt id='1085'> +3.9662055E-01 </wgt>
<wgt id='1086'> +3.9426107E-01 </wgt>
<wgt id='1087'> +3.9514352E-01 </wgt>
<wgt id='1088'> +3.9530023E-01 </wgt>
<wgt id='1089'> +3.9475448E-01 </wgt>
<wgt id='1090'> +3.9474591E-01 </wgt>
<wgt id='1091'> +3.9500822E-01 </wgt>
<wgt id='1092'> +3.9568091E-01 </wgt>
<wgt id='1093'> +3.9535911E-01 </wgt>
<wgt id='1094'> +3.9602935E-01 </wgt>
<wgt id='1095'> +3.9480579E-01 </wgt>
<wgt id='1096'> +3.9597774E-01 </wgt>
<wgt id='1097'> +3.9591575E-01 </wgt>
<wgt id='1098'> +3.9528020E-01 </wgt>
<wgt id='1099'> +3.9540170E-01 </wgt>
<wgt id='1100'> +3.9608439E-01 </wgt>
<wgt id='1101'> +3.9580215E-01 </wgt>
<wgt id='1102'> +3.9554640E-01 </wgt>
<wgt id='1103'> +3.9600729E-01 </wgt>
<wgt id='1104'> +3.9586079E-01 </wgt>
<wgt id='1105'> +3.9465334E-01 </wgt>
<wgt id='1106'> +3.9559543E-01 </wgt>
<wgt id='1107'> +3.9499943E-01 </wgt>
<wgt id='1108'> +3.9481641E-01 </wgt>
<wgt id='1109'> +3.9643407E-01 </wgt>
<wgt id='1110'> +3.9614539E-01 </wgt>
<wgt id='1111'> +3.9536233E-01 </wgt>
<wgt id='1112'> +3.9640312E-01 </wgt>
<wgt id='1113'> +3.9501176E-01 </wgt>
<wgt id='1114'> +3.9485538E-01 </wgt>
<wgt id='1115'> +3.9629455E-01 </wgt>
<wgt id='1116'> +3.9624612E-01 </wgt>
<wgt id='1117'> +3.9559006E-01 </wgt>
<wgt id='1118'> +3.9593571E-01 </wgt>
<wgt id='1119'> +3.9639086E-01 </wgt>
<wgt id='1120'> +3.9538612E-01 </wgt>
<wgt id='1121'> +3.9536682E-01 </wgt>
<wgt id='1122'> +3.9640829E-01 </wgt>
<wgt id='1123'> +3.9590887E-01 </wgt>
<wgt id='1124'> +3.9572523E-01 </wgt>
<wgt id='1125'> +3.9533276E-01 </wgt>
<wgt id='1126'> +3.9594754E-01 </wgt>
<wgt id='1127'> +3.9534226E-01 </wgt>
<wgt id='1128'> +3.9571966E-01 </wgt>
<wgt id='1129'> +3.9545263E-01 </wgt>
<wgt id='1130'> +3.9580985E-01 </wgt>
<wgt id='1131'> +3.9548628E-01 </wgt>
<wgt id='1132'> +3.9585124E-01 </wgt>
<wgt id='1133'> +3.9572842E-01 </wgt>
<wgt id='1134'> +3.9511359E-01 </wgt>
<wgt id='1135'> +3.9541394E-01 </wgt>
<wgt id='1136'> +3.9541811E-01 </wgt>
<wgt id='1137'> +3.9501839E-01 </wgt>
<wgt id='1138'> +3.9571630E-01 </wgt>
<wgt id='1139'> +3.9558926E-01 </wgt>
<wgt id='1140'> +3.9574739E-01 </wgt>
<wgt id='1141'> +3.9523737E-01 </wgt>
<wgt id='1142'> +3.9573104E-01 </wgt>
<wgt id='1143'> +3.9546515E-01 </wgt>
<wgt id='1144'> +3.9536818E-01 </wgt>
<wgt id='1145'> +3.9545333E-01 </wgt>
<wgt id='1146'> +3.9533335E-01 </wgt>
<wgt id='1147'> +3.9559160E-01 </wgt>
<wgt id='1148'> +3.9556008E-01 </wgt>
<wgt id='1149'> +3.8947816E-01 </wgt>
<wgt id='1150'> +3.8451911E-01 </wgt>
<wgt id='1151'> +3.8540778E-01 </wgt>
<wgt id='1152'> +3.9521678E-01 </wgt>
<wgt id='1153'> +3.8285654E-01 </wgt>
<wgt id='1154'> +3.9620262E-01 </wgt>
<wgt id='1155'> +3.8878966E-01 </wgt>
<wgt id='1156'> +3.8214354E-01 </wgt>
<wgt id='1157'> +3.9172644E-01 </wgt>
<wgt id='1158'> +3.9545452E-01 </wgt>
<wgt id='1159'> +3.7718046E-01 </wgt>
<wgt id='1160'> +3.9086695E-01 </wgt>
<wgt id='1161'> +3.8681533E-01 </wgt>
<wgt id='1162'> +3.8057374E-01 </wgt>
<wgt id='1163'> +3.9167217E-01 </wgt>
<wgt id='1164'> +3.9519378E-01 </wgt>
<wgt id='1165'> +3.9703276E-01 </wgt>
<wgt id='1166'> +3.9930099E-01 </wgt>
<wgt id='1167'> +3.8786258E-01 </wgt>
<wgt id='1168'> +3.9112989E-01 </wgt>
<wgt id='1169'> +3.9385942E-01 </wgt>
<wgt id='1170'> +3.9726418E-01 </wgt>
<wgt id='1171'> +4.0322365E-01 </wgt>
<wgt id='1172'> +3.9817424E-01 </wgt>
<wgt id='1173'> +3.8333867E-01 </wgt>
<wgt id='1174'> +4.0213531E-01 </wgt>
<wgt id='1175'> +3.9908167E-01 </wgt>
<wgt id='1176'> +3.8108607E-01 </wgt>
<wgt id='1177'> +3.9023672E-01 </wgt>
<wgt id='1178'> +3.8853035E-01 </wgt>
<wgt id='1179'> +3.8511312E-01 </wgt>
<wgt id='1180'> +3.9691245E-01 </wgt>
<wgt id='1181'> +3.8327976E-01 </wgt>
<wgt id='1182'> +3.9344186E-01 </wgt>
<wgt id='1183'> +3.8764410E-01 </wgt>
<wgt id='1184'> +3.8643920E-01 </wgt>
<wgt id='1185'> +3.9710039E-01 </wgt>
<wgt id='1186'> +3.8804656E-01 </wgt>
<wgt id='1187'> +3.8349303E-01 </wgt>
<wgt id='1188'> +3.6511341E-01 </wgt>
<wgt id='1189'> +3.8524332E-01 </wgt>
<wgt id='1190'> +3.9387671E-01 </wgt>
<wgt id='1191'> +3.7792505E-01 </wgt>
<wgt id='1192'> +3.8407165E-01 </wgt>
<wgt id='1193'> +3.8175588E-01 </wgt>
<wgt id='1194'> +3.8621648E-01 </wgt>
<wgt id='1195'> +3.8662010E-01 </wgt>
<wgt id='1196'> +3.8906249E-01 </wgt>
<wgt id='1197'> +3.8594286E-01 </wgt>
<wgt id='1198'> +3.9174326E-01 </wgt>
<wgt id='1199'> +3.9111694E-01 </wgt>
<wgt id='1200'> +3.8551919E-01 </wgt>
<wgt id='1201'> +3.9525554E-01 </wgt>
<wgt id='1202'> +3.8304461E-01 </wgt>
<wgt id='1203'> +3.9278587E-01 </wgt>
<wgt id='1204'> +3.9549178E-01 </wgt>
<wgt id='1205'> +3.7995575E-01 </wgt>
<wgt id='1206'> +3.9504984E-01 </wgt>
<wgt id='1207'> +3.9570649E-01 </wgt>
<wgt id='1208'> +4.0215777E-01 </wgt>
<wgt id='1209'> +4.0621150E-01 </wgt>
<wgt id='1210'> +3.8207523E-01 </wgt>
<wgt id='1211'> +3.9410027E-01 </wgt>
<wgt id='1212'> +3.8866934E-01 </wgt>
<wgt id='1213'> +3.9047076E-01 </wgt>
<wgt id='1214'> +4.0078989E-01 </wgt>
<wgt id='1215'> +3.8328709E-01 </wgt>
<wgt id='1216'> +3.8442742E-01 </wgt>
<wgt id='1217'> +3.8869155E-01 </wgt>
<wgt id='1218'> +3.8277493E-01 </wgt>
<wgt id='1219'> +3.8272838E-01 </wgt>
<wgt id='1220'> +3.9427627E-01 </wgt>
<wgt id='1221'> +3.7579833E-01 </wgt>
<wgt id='1222'> +3.9349531E-01 </wgt>
<wgt id='1223'> +3.9520174E-01 </wgt>
<wgt id='1224'> +3.8645276E-01 </wgt>
<wgt id='1225'> +4.0125734E-01 </wgt>
<wgt id='1226'> +3.7890839E-01 </wgt>
<wgt id='1227'> +4.0082126E-01 </wgt>
<wgt id='1228'> +3.9533318E-01 </wgt>
<wgt id='1229'> +3.6874358E-01 </wgt>
<wgt id='1230'> +3.8703604E-01 </wgt>
<wgt id='1231'> +3.9703276E-01 </wgt>
<wgt id='1232'> +3.8334609E-01 </wgt>
<wgt id='1233'> +3.9164427E-01 </wgt>
<wgt id='1234'> +3.9382041E-01 </wgt>
<wgt id='1235'> +3.7065922E-01 </wgt>
<wgt id='1236'> +3.9719924E-01 </wgt>
<wgt id='1237'> +3.7888670E-01 </wgt>
<wgt id='1238'> +3.8642168E-01 </wgt>
<wgt id='1239'> +3.9453049E-01 </wgt>
<wgt id='1240'> +3.9652969E-01 </wgt>
<wgt id='1241'> +3.9711345E-01 </wgt>
<wgt id='1242'> +3.9188374E-01 </wgt>
<wgt id='1243'> +3.8916335E-01 </wgt>
<wgt id='1244'> +3.8337669E-01 </wgt>
<wgt id='1245'> +3.9159043E-01 </wgt>
<wgt id='1246'> +3.8166777E-01 </wgt>
<wgt id='1247'> +3.9206309E-01 </wgt>
<wgt id='1248'> +3.9413065E-01 </wgt>
<wgt id='1249'> +3.9240320E-01 </wgt>
<wgt id='1250'> +3.9697881E-01 </wgt>
<wgt id='1251'> +3.9321391E-01 </wgt>
<wgt id='1252'> +3.8985106E-01 </wgt>
<wgt id='1253'> +3.9689127E-01 </wgt>
<wgt id='1254'> +4.1553168E-01 </wgt>
<wgt id='1255'> +4.6271999E-01 </wgt>
<wgt id='1256'> +4.6635435E-01 </wgt>
<wgt id='1257'> +4.6062236E-01 </wgt>
<wgt id='1258'> +4.6226707E-01 </wgt>
<wgt id='1259'> +4.6295290E-01 </wgt>
<wgt id='1260'> +4.6404366E-01 </wgt>
<wgt id='1261'> +4.6096569E-01 </wgt>
<wgt id='1262'> +4.6367833E-01 </wgt>
<wgt id='1263'> +4.6210710E-01 </wgt>
<wgt id='1264'> +4.6199620E-01 </wgt>
<wgt id='1265'> +4.6321954E-01 </wgt>
<wgt id='1266'> +4.6257600E-01 </wgt>
<wgt id='1267'> +4.6287407E-01 </wgt>
<wgt id='1268'> +4.6478276E-01 </wgt>
<wgt id='1269'> +4.6062390E-01 </wgt>
<wgt id='1270'> +4.6319599E-01 </wgt>
<wgt id='1271'> +4.6162062E-01 </wgt>
<wgt id='1272'> +4.6457435E-01 </wgt>
<wgt id='1273'> +4.6131722E-01 </wgt>
<wgt id='1274'> +4.6098818E-01 </wgt>
<wgt id='1275'> +4.6493318E-01 </wgt>
<wgt id='1276'> +4.6049412E-01 </wgt>
<wgt id='1277'> +4.6506874E-01 </wgt>
<wgt id='1278'> +4.6147638E-01 </wgt>
<wgt id='1279'> +4.6379336E-01 </wgt>
<wgt id='1280'> +4.6344736E-01 </wgt>
<wgt id='1281'> +4.6078111E-01 </wgt>
<wgt id='1282'> +4.6553110E-01 </wgt>
<wgt id='1283'> +4.5934536E-01 </wgt>
<wgt id='1284'> +4.6139242E-01 </wgt>
<wgt id='1285'> +4.6414834E-01 </wgt>
<wgt id='1286'> +4.6593919E-01 </wgt>
<wgt id='1287'> +4.6250463E-01 </wgt>
<wgt id='1288'> +4.6222480E-01 </wgt>
<wgt id='1289'> +4.6293560E-01 </wgt>
<wgt id='1290'> +4.6335069E-01 </wgt>
<wgt id='1291'> +4.6251420E-01 </wgt>
<wgt id='1292'> +4.6345458E-01 </wgt>
<wgt id='1293'> +4.6052957E-01 </wgt>
<wgt id='1294'> +4.6009923E-01 </wgt>
<wgt id='1295'> +4.6368151E-01 </wgt>
<wgt id='1296'> +3.9779915E-01 </wgt>
<wgt id='1297'> +3.9855307E-01 </wgt>
<wgt id='1298'> +3.9718665E-01 </wgt>
<wgt id='1299'> +3.9614083E-01 </wgt>
<wgt id='1300'> +3.9963029E-01 </wgt>
<wgt id='1301'> +3.9686058E-01 </wgt>
<wgt id='1302'> +3.9918576E-01 </wgt>
<wgt id='1303'> +3.9772645E-01 </wgt>
<wgt id='1304'> +3.9784544E-01 </wgt>
<wgt id='1305'> +3.9820985E-01 </wgt>
<wgt id='1306'> +3.9722301E-01 </wgt>
<wgt id='1307'> +3.9978461E-01 </wgt>
<wgt id='1308'> +3.9655151E-01 </wgt>
<wgt id='1309'> +3.9853992E-01 </wgt>
<wgt id='1310'> +3.9678825E-01 </wgt>
<wgt id='1311'> +3.9925212E-01 </wgt>
<wgt id='1312'> +3.9725483E-01 </wgt>
<wgt id='1313'> +3.9933181E-01 </wgt>
<wgt id='1314'> +3.9531937E-01 </wgt>
<wgt id='1315'> +3.9673841E-01 </wgt>
<wgt id='1316'> +3.9881176E-01 </wgt>
<wgt id='1317'> +3.9346858E-01 </wgt>
<wgt id='1318'> +4.0555499E-01 </wgt>
<wgt id='1319'> +3.9972677E-01 </wgt>
<wgt id='1320'> +3.9680316E-01 </wgt>
<wgt id='1321'> +3.9791657E-01 </wgt>
<wgt id='1322'> +3.9782991E-01 </wgt>
<wgt id='1323'> +3.9931696E-01 </wgt>
<wgt id='1324'> +3.9648935E-01 </wgt>
<wgt id='1325'> +3.9832721E-01 </wgt>
<wgt id='1326'> +3.9722120E-01 </wgt>
<wgt id='1327'> +3.9846982E-01 </wgt>
<wgt id='1328'> +3.9753740E-01 </wgt>
<wgt id='1329'> +3.9788779E-01 </wgt>
<wgt id='1330'> +3.9773524E-01 </wgt>
<wgt id='1331'> +3.9856186E-01 </wgt>
<wgt id='1332'> +3.9807948E-01 </wgt>
<wgt id='1333'> +3.9757959E-01 </wgt>
<wgt id='1334'> +3.9620572E-01 </wgt>
<wgt id='1335'> +3.9873699E-01 </wgt>
<wgt id='1336'> +3.9761703E-01 </wgt>
<wgt id='1337'> +3.9779915E-01 </wgt>
<wgt id='1338'> +3.9731188E-01 </wgt>
<wgt id='1339'> +3.9748104E-01 </wgt>
<wgt id='1340'> +3.9764954E-01 </wgt>
<wgt id='1341'> +3.9790630E-01 </wgt>
<wgt id='1342'> +3.9805199E-01 </wgt>
<wgt id='1343'> +3.9813817E-01 </wgt>
<wgt id='1344'> +3.9116916E-01 </wgt>
<wgt id='1345'> +3.9205151E-01 </wgt>
<wgt id='1346'> +3.9028231E-01 </wgt>
<wgt id='1347'> +3.9417325E-01 </wgt>
<wgt id='1348'> +3.8895377E-01 </wgt>
<wgt id='1349'> +3.9079127E-01 </wgt>
<wgt id='1350'> +3.9148600E-01 </wgt>
<wgt id='1351'> +3.9118732E-01 </wgt>
<wgt id='1352'> +3.9113631E-01 </wgt>
<wgt id='1353'> +3.9217246E-01 </wgt>
<wgt id='1354'> +3.9047429E-01 </wgt>
<wgt id='1355'> +3.8994679E-01 </wgt>
<wgt id='1356'> +3.9212096E-01 </wgt>
<wgt id='1357'> +3.9137748E-01 </wgt>
<wgt id='1358'> +3.9103537E-01 </wgt>
<wgt id='1359'> +3.9057601E-01 </wgt>
<wgt id='1360'> +3.9259444E-01 </wgt>
<wgt id='1361'> +3.9601630E-01 </wgt>
<wgt id='1362'> +3.8716269E-01 </wgt>
<wgt id='1363'> +3.9302797E-01 </wgt>
<wgt id='1364'> +3.8896122E-01 </wgt>
<wgt id='1365'> +3.9125011E-01 </wgt>
<wgt id='1366'> +3.9126607E-01 </wgt>
<wgt id='1367'> +3.9090905E-01 </wgt>
<wgt id='1368'> +3.9140394E-01 </wgt>
<wgt id='1369'> +3.8868335E-01 </wgt>
<wgt id='1370'> +3.9354663E-01 </wgt>
<wgt id='1371'> +3.9107228E-01 </wgt>
<wgt id='1372'> +3.9169839E-01 </wgt>
<wgt id='1373'> +3.9092906E-01 </wgt>
<wgt id='1374'> +3.9023997E-01 </wgt>
<wgt id='1375'> +3.9207886E-01 </wgt>
<wgt id='1376'> +3.9083896E-01 </wgt>
<wgt id='1377'> +3.9129035E-01 </wgt>
<wgt id='1378'> +3.9079882E-01 </wgt>
<wgt id='1379'> +3.9211940E-01 </wgt>
<wgt id='1380'> +3.9152908E-01 </wgt>
<wgt id='1381'> +3.9086490E-01 </wgt>
<wgt id='1382'> +3.8991352E-01 </wgt>
<wgt id='1383'> +3.9111111E-01 </wgt>
<wgt id='1384'> +3.9183789E-01 </wgt>
<wgt id='1385'> +3.9116916E-01 </wgt>
<wgt id='1386'> +3.9059057E-01 </wgt>
<wgt id='1387'> +3.9077453E-01 </wgt>
<wgt id='1388'> +3.9097860E-01 </wgt>
<wgt id='1389'> +3.9130298E-01 </wgt>
<wgt id='1390'> +3.9146230E-01 </wgt>
<wgt id='1391'> +3.9158668E-01 </wgt>
<wgt id='1392'> +4.1577717E-01 </wgt>
<wgt id='1393'> +4.1579085E-01 </wgt>
<wgt id='1394'> +4.1575902E-01 </wgt>
<wgt id='1395'> +4.1588981E-01 </wgt>
<wgt id='1396'> +4.1570532E-01 </wgt>
<wgt id='1397'> +4.1698223E-01 </wgt>
<wgt id='1398'> +4.1460930E-01 </wgt>
<wgt id='1399'> +4.1816002E-01 </wgt>
<wgt id='1400'> +4.1283859E-01 </wgt>
<wgt id='1401'> +4.1433515E-01 </wgt>
<wgt id='1402'> +4.1755124E-01 </wgt>
<wgt id='1403'> +4.1540199E-01 </wgt>
<wgt id='1404'> +4.1652511E-01 </wgt>
<wgt id='1405'> +4.1530735E-01 </wgt>
<wgt id='1406'> +4.1644126E-01 </wgt>
<wgt id='1407'> +4.1492384E-01 </wgt>
<wgt id='1408'> +4.1637697E-01 </wgt>
<wgt id='1409'> +4.1586339E-01 </wgt>
<wgt id='1410'> +4.1564216E-01 </wgt>
<wgt id='1411'> +4.1578910E-01 </wgt>
<wgt id='1412'> +4.1576628E-01 </wgt>
<wgt id='1413'> +4.1813260E-01 </wgt>
<wgt id='1414'> +4.1328110E-01 </wgt>
<wgt id='1415'> +4.1698215E-01 </wgt>
<wgt id='1416'> +4.1436828E-01 </wgt>
<wgt id='1417'> +4.1649080E-01 </wgt>
<wgt id='1418'> +4.1468486E-01 </wgt>
<wgt id='1419'> +4.1652455E-01 </wgt>
<wgt id='1420'> +4.1553110E-01 </wgt>
<wgt id='1421'> +4.1901898E-01 </wgt>
<wgt id='1422'> +4.1207290E-01 </wgt>
<wgt id='1423'> +4.1891756E-01 </wgt>
<wgt id='1424'> +4.1327323E-01 </wgt>
<wgt id='1425'> +4.1578940E-01 </wgt>
<wgt id='1426'> +4.1573226E-01 </wgt>
<wgt id='1427'> +4.1474287E-01 </wgt>
<wgt id='1428'> +4.1723007E-01 </wgt>
<wgt id='1429'> +4.1579120E-01 </wgt>
<wgt id='1430'> +4.1593723E-01 </wgt>
<wgt id='1431'> +4.1593865E-01 </wgt>
<wgt id='1432'> +4.1552041E-01 </wgt>
<wgt id='1433'> +4.1468407E-01 </wgt>
<wgt id='1434'> +4.1667795E-01 </wgt>
<wgt id='1435'> +4.1602743E-01 </wgt>
<wgt id='1436'> +4.1641215E-01 </wgt>
<wgt id='1437'> +4.1563649E-01 </wgt>
<wgt id='1438'> +4.1617174E-01 </wgt>
<wgt id='1439'> +4.1505125E-01 </wgt>
<wgt id='1440'> +4.1512732E-01 </wgt>
<wgt id='1441'> +4.1604946E-01 </wgt>
<wgt id='1442'> +4.1599658E-01 </wgt>
<wgt id='1443'> +4.1480490E-01 </wgt>
<wgt id='1444'> +4.1483697E-01 </wgt>
<wgt id='1445'> +4.1476818E-01 </wgt>
<wgt id='1446'> +4.1492960E-01 </wgt>
<wgt id='1447'> +4.1472290E-01 </wgt>
<wgt id='1448'> +4.1612579E-01 </wgt>
<wgt id='1449'> +4.1358553E-01 </wgt>
<wgt id='1450'> +4.1714300E-01 </wgt>
<wgt id='1451'> +4.1220374E-01 </wgt>
<wgt id='1452'> +4.1343991E-01 </wgt>
<wgt id='1453'> +4.1613476E-01 </wgt>
<wgt id='1454'> +4.1435169E-01 </wgt>
<wgt id='1455'> +4.1580201E-01 </wgt>
<wgt id='1456'> +4.1422567E-01 </wgt>
<wgt id='1457'> +4.1584433E-01 </wgt>
<wgt id='1458'> +4.1401863E-01 </wgt>
<wgt id='1459'> +4.1525325E-01 </wgt>
<wgt id='1460'> +4.1486835E-01 </wgt>
<wgt id='1461'> +4.1469369E-01 </wgt>
<wgt id='1462'> +4.1484011E-01 </wgt>
<wgt id='1463'> +4.1477511E-01 </wgt>
<wgt id='1464'> +4.1685638E-01 </wgt>
<wgt id='1465'> +4.1211046E-01 </wgt>
<wgt id='1466'> +4.1621415E-01 </wgt>
<wgt id='1467'> +4.1363027E-01 </wgt>
<wgt id='1468'> +4.1273050E-01 </wgt>
<wgt id='1469'> +4.1668061E-01 </wgt>
<wgt id='1470'> +4.1554372E-01 </wgt>
<wgt id='1471'> +4.1458228E-01 </wgt>
<wgt id='1472'> +4.1749366E-01 </wgt>
<wgt id='1473'> +4.1164627E-01 </wgt>
<wgt id='1474'> +4.1712041E-01 </wgt>
<wgt id='1475'> +4.1207483E-01 </wgt>
<wgt id='1476'> +4.1444376E-01 </wgt>
<wgt id='1477'> +4.1511928E-01 </wgt>
<wgt id='1478'> +4.1384633E-01 </wgt>
<wgt id='1479'> +4.1632580E-01 </wgt>
<wgt id='1480'> +4.1487938E-01 </wgt>
<wgt id='1481'> +4.1497584E-01 </wgt>
<wgt id='1482'> +4.1489944E-01 </wgt>
<wgt id='1483'> +4.1461230E-01 </wgt>
<wgt id='1484'> +4.1365667E-01 </wgt>
<wgt id='1485'> +4.1579655E-01 </wgt>
<wgt id='1486'> +4.1506706E-01 </wgt>
<wgt id='1487'> +4.1543571E-01 </wgt>
<wgt id='1488'> +4.1462507E-01 </wgt>
<wgt id='1489'> +4.1522279E-01 </wgt>
<wgt id='1490'> +4.1401380E-01 </wgt>
<wgt id='1491'> +4.1426960E-01 </wgt>
<wgt id='1492'> +4.1495423E-01 </wgt>
<wgt id='1493'> +4.1511718E-01 </wgt>
<wgt id='1494'> +3.9729551E-01 </wgt>
<wgt id='1495'> +3.9626646E-01 </wgt>
<wgt id='1496'> +3.9671910E-01 </wgt>
<wgt id='1497'> +3.9706868E-01 </wgt>
<wgt id='1498'> +3.9722598E-01 </wgt>
<wgt id='1499'> +3.9724074E-01 </wgt>
<wgt id='1500'> +3.9896633E-01 </wgt>
<wgt id='1501'> +3.9852719E-01 </wgt>
<wgt id='1502'> +3.9817710E-01 </wgt>
<wgt id='1503'> +3.9781842E-01 </wgt>
<wgt id='1504'> +3.9752258E-01 </wgt>
<wgt id='1505'> +3.9701906E-01 </wgt>
<wgt id='1506'> +3.9684568E-01 </wgt>
<wgt id='1507'> +3.9671722E-01 </wgt>
<wgt id='1508'> +3.9724074E-01 </wgt>
<wgt id='1509'> +3.9710912E-01 </wgt>
<wgt id='1510'> +3.9717416E-01 </wgt>
<wgt id='1511'> +3.9728711E-01 </wgt>
<wgt id='1512'> +3.9729038E-01 </wgt>
<wgt id='1513'> +3.9258046E-01 </wgt>
<wgt id='1514'> +3.9244881E-01 </wgt>
<wgt id='1515'> +3.9276638E-01 </wgt>
<wgt id='1516'> +3.9328764E-01 </wgt>
<wgt id='1517'> +3.9188358E-01 </wgt>
<wgt id='1518'> +3.9306664E-01 </wgt>
<wgt id='1519'> +3.9238775E-01 </wgt>
<wgt id='1520'> +3.9535283E-01 </wgt>
<wgt id='1521'> +3.8982812E-01 </wgt>
<wgt id='1522'> +3.9182405E-01 </wgt>
<wgt id='1523'> +3.9331427E-01 </wgt>
<wgt id='1524'> +3.9419444E-01 </wgt>
<wgt id='1525'> +3.9188247E-01 </wgt>
<wgt id='1526'> +3.9282612E-01 </wgt>
<wgt id='1527'> +3.9228891E-01 </wgt>
<wgt id='1528'> +3.9140193E-01 </wgt>
<wgt id='1529'> +3.9387312E-01 </wgt>
<wgt id='1530'> +3.9389125E-01 </wgt>
<wgt id='1531'> +3.9181998E-01 </wgt>
<wgt id='1532'> +3.9216818E-01 </wgt>
<wgt id='1533'> +3.9313971E-01 </wgt>
<wgt id='1534'> +3.9085282E-01 </wgt>
<wgt id='1535'> +3.9380715E-01 </wgt>
<wgt id='1536'> +3.9140807E-01 </wgt>
<wgt id='1537'> +3.9365991E-01 </wgt>
<wgt id='1538'> +3.9238766E-01 </wgt>
<wgt id='1539'> +3.9282745E-01 </wgt>
<wgt id='1540'> +3.9337273E-01 </wgt>
<wgt id='1541'> +3.9213882E-01 </wgt>
<wgt id='1542'> +3.9068092E-01 </wgt>
<wgt id='1543'> +3.9779148E-01 </wgt>
<wgt id='1544'> +3.9309965E-01 </wgt>
<wgt id='1545'> +3.9112330E-01 </wgt>
<wgt id='1546'> +3.9147453E-01 </wgt>
<wgt id='1547'> +3.9432695E-01 </wgt>
<wgt id='1548'> +3.9450736E-01 </wgt>
<wgt id='1549'> +3.9132466E-01 </wgt>
<wgt id='1550'> +3.9264780E-01 </wgt>
<wgt id='1551'> +3.9259294E-01 </wgt>
<wgt id='1552'> +3.9288281E-01 </wgt>
<wgt id='1553'> +3.9227626E-01 </wgt>
<wgt id='1554'> +3.9273595E-01 </wgt>
<wgt id='1555'> +3.9146127E-01 </wgt>
<wgt id='1556'> +3.9271013E-01 </wgt>
<wgt id='1557'> +3.9369338E-01 </wgt>
<wgt id='1558'> +3.9130409E-01 </wgt>
<wgt id='1559'> +3.9260367E-01 </wgt>
<wgt id='1560'> +3.9280136E-01 </wgt>
<wgt id='1561'> +3.9238421E-01 </wgt>
<wgt id='1562'> +3.9169537E-01 </wgt>
<wgt id='1563'> +3.9260941E-01 </wgt>
<wgt id='1564'> +3.9258046E-01 </wgt>
<wgt id='1565'> +3.9258231E-01 </wgt>
<wgt id='1566'> +3.9147456E-01 </wgt>
<wgt id='1567'> +3.9224905E-01 </wgt>
<wgt id='1568'> +3.9359263E-01 </wgt>
<wgt id='1569'> +3.9321925E-01 </wgt>
<wgt id='1570'> +3.9292508E-01 </wgt>
<wgt id='1571'> +3.9271961E-01 </wgt>
<wgt id='1572'> +3.9239825E-01 </wgt>
<wgt id='1573'> +3.9220165E-01 </wgt>
<wgt id='1574'> +3.9194047E-01 </wgt>
<wgt id='1575'> +3.9184350E-01 </wgt>
<wgt id='1576'> +3.9224905E-01 </wgt>
<wgt id='1577'> +3.9216430E-01 </wgt>
<wgt id='1578'> +3.9222059E-01 </wgt>
<wgt id='1579'> +3.9225304E-01 </wgt>
<wgt id='1580'> +3.9227573E-01 </wgt>
<wgt id='1581'> +3.9677477E-01 </wgt>
<wgt id='1582'> +3.9653308E-01 </wgt>
<wgt id='1583'> +3.9690355E-01 </wgt>
<wgt id='1584'> +3.9476910E-01 </wgt>
<wgt id='1585'> +3.9753383E-01 </wgt>
<wgt id='1586'> +3.9569323E-01 </wgt>
<wgt id='1587'> +3.9053995E-01 </wgt>
<wgt id='1588'> +3.9753838E-01 </wgt>
<wgt id='1589'> +3.9673921E-01 </wgt>
<wgt id='1590'> +3.9610420E-01 </wgt>
<wgt id='1591'> +3.9605239E-01 </wgt>
<wgt id='1592'> +4.0105609E-01 </wgt>
<wgt id='1593'> +3.9716594E-01 </wgt>
<wgt id='1594'> +3.9664375E-01 </wgt>
<wgt id='1595'> +3.9680714E-01 </wgt>
<wgt id='1596'> +3.9686400E-01 </wgt>
<wgt id='1597'> +3.9737375E-01 </wgt>
<wgt id='1598'> +3.9738451E-01 </wgt>
<wgt id='1599'> +3.9699811E-01 </wgt>
<wgt id='1600'> +3.9728395E-01 </wgt>
<wgt id='1601'> +3.9653606E-01 </wgt>
<wgt id='1602'> +3.9720516E-01 </wgt>
<wgt id='1603'> +3.9685990E-01 </wgt>
<wgt id='1604'> +3.9705445E-01 </wgt>
<wgt id='1605'> +3.9691534E-01 </wgt>
<wgt id='1606'> +3.9676231E-01 </wgt>
<wgt id='1607'> +3.9719769E-01 </wgt>
<wgt id='1608'> +3.9681158E-01 </wgt>
<wgt id='1609'> +3.9675248E-01 </wgt>
<wgt id='1610'> +3.9661022E-01 </wgt>
<wgt id='1611'> +3.9764693E-01 </wgt>
<wgt id='1612'> +3.9245839E-01 </wgt>
<wgt id='1613'> +3.9198058E-01 </wgt>
<wgt id='1614'> +3.9408743E-01 </wgt>
<wgt id='1615'> +3.9399481E-01 </wgt>
<wgt id='1616'> +3.9189773E-01 </wgt>
<wgt id='1617'> +3.9196247E-01 </wgt>
<wgt id='1618'> +3.9271573E-01 </wgt>
<wgt id='1619'> +3.9083930E-01 </wgt>
<wgt id='1620'> +3.9260754E-01 </wgt>
<wgt id='1621'> +3.9226280E-01 </wgt>
<wgt id='1622'> +3.9325995E-01 </wgt>
<wgt id='1623'> +3.9346417E-01 </wgt>
<wgt id='1624'> +3.9281030E-01 </wgt>
<wgt id='1625'> +3.9466392E-01 </wgt>
<wgt id='1626'> +3.9442904E-01 </wgt>
<wgt id='1627'> +3.9211483E-01 </wgt>
<wgt id='1628'> +3.9178855E-01 </wgt>
<wgt id='1629'> +3.9301857E-01 </wgt>
<wgt id='1630'> +3.9345837E-01 </wgt>
<wgt id='1631'> +3.9243699E-01 </wgt>
<wgt id='1632'> +3.9257343E-01 </wgt>
<wgt id='1633'> +3.9185931E-01 </wgt>
<wgt id='1634'> +3.9302894E-01 </wgt>
<wgt id='1635'> +3.9125056E-01 </wgt>
<wgt id='1636'> +3.9305588E-01 </wgt>
<wgt id='1637'> +3.9251826E-01 </wgt>
<wgt id='1638'> +3.9162137E-01 </wgt>
<wgt id='1639'> +3.9382469E-01 </wgt>
<wgt id='1640'> +3.9321068E-01 </wgt>
<wgt id='1641'> +3.8864122E-01 </wgt>
<wgt id='1642'> +3.9157043E-01 </wgt>
<wgt id='1643'> +3.9216192E-01 </wgt>
<wgt id='1644'> +3.9170461E-01 </wgt>
<wgt id='1645'> +3.9220897E-01 </wgt>
<wgt id='1646'> +3.9278888E-01 </wgt>
<wgt id='1647'> +3.9191660E-01 </wgt>
<wgt id='1648'> +3.9202720E-01 </wgt>
<wgt id='1649'> +3.9307954E-01 </wgt>
<wgt id='1650'> +3.9212878E-01 </wgt>
<wgt id='1651'> +3.9249692E-01 </wgt>
<wgt id='1652'> +3.9251613E-01 </wgt>
<wgt id='1653'> +3.9194202E-01 </wgt>
<wgt id='1654'> +3.9226787E-01 </wgt>
<wgt id='1655'> +3.9350621E-01 </wgt>
<wgt id='1656'> +3.9200072E-01 </wgt>
<wgt id='1657'> +3.9302843E-01 </wgt>
<wgt id='1658'> +3.9267215E-01 </wgt>
<wgt id='1659'> +3.9298790E-01 </wgt>
<wgt id='1660'> +3.9368542E-01 </wgt>
<wgt id='1661'> +3.9293264E-01 </wgt>
<wgt id='1662'> +3.9428905E-01 </wgt>
<wgt id='1663'> +3.9426852E-01 </wgt>
<wgt id='1664'> +3.9274505E-01 </wgt>
<wgt id='1665'> +3.9305380E-01 </wgt>
<wgt id='1666'> +3.9345828E-01 </wgt>
<wgt id='1667'> +3.9292903E-01 </wgt>
<wgt id='1668'> +3.9176549E-01 </wgt>
<wgt id='1669'> +3.9246806E-01 </wgt>
<wgt id='1670'> +3.9366032E-01 </wgt>
<wgt id='1671'> +3.9334752E-01 </wgt>
<wgt id='1672'> +3.9183146E-01 </wgt>
<wgt id='1673'> +3.9307007E-01 </wgt>
<wgt id='1674'> +3.9235514E-01 </wgt>
<wgt id='1675'> +3.9288396E-01 </wgt>
<wgt id='1676'> +3.9245969E-01 </wgt>
<wgt id='1677'> +3.9300962E-01 </wgt>
<wgt id='1678'> +3.9251547E-01 </wgt>
<wgt id='1679'> +3.9335273E-01 </wgt>
<wgt id='1680'> +3.9232893E-01 </wgt>
<wgt id='1681'> +3.9306192E-01 </wgt>
<wgt id='1682'> +3.9203336E-01 </wgt>
<wgt id='1683'> +3.9222347E-01 </wgt>
<wgt id='1684'> +3.9164026E-01 </wgt>
<wgt id='1685'> +3.9161660E-01 </wgt>
<wgt id='1686'> +3.9287690E-01 </wgt>
<wgt id='1687'> +3.9348993E-01 </wgt>
<wgt id='1688'> +3.9279603E-01 </wgt>
<wgt id='1689'> +3.9207108E-01 </wgt>
<wgt id='1690'> +3.9204052E-01 </wgt>
<wgt id='1691'> +3.9243458E-01 </wgt>
<wgt id='1692'> +3.9274527E-01 </wgt>
<wgt id='1693'> +3.9214148E-01 </wgt>
<wgt id='1694'> +3.9278262E-01 </wgt>
<wgt id='1695'> +3.9219978E-01 </wgt>
<wgt id='1696'> +3.9311649E-01 </wgt>
<wgt id='1697'> +3.9210401E-01 </wgt>
<wgt id='1698'> +3.9247289E-01 </wgt>
<wgt id='1699'> +3.9272346E-01 </wgt>
<wgt id='1700'> +3.9266203E-01 </wgt>
<wgt id='1701'> +3.9254620E-01 </wgt>
<wgt id='1702'> +3.9284972E-01 </wgt>
<wgt id='1703'> +3.9236266E-01 </wgt>
<wgt id='1704'> +3.9230310E-01 </wgt>
<wgt id='1705'> +3.9288508E-01 </wgt>
<wgt id='1706'> +3.9264350E-01 </wgt>
<wgt id='1707'> +3.9296734E-01 </wgt>
<wgt id='1708'> +3.9251599E-01 </wgt>
<wgt id='1709'> +3.9289233E-01 </wgt>
<wgt id='1710'> +3.9273604E-01 </wgt>
<wgt id='1711'> +3.9256655E-01 </wgt>
<wgt id='1712'> +3.9257691E-01 </wgt>
<wgt id='1713'> +3.8907089E-01 </wgt>
<wgt id='1714'> +3.9429928E-01 </wgt>
<wgt id='1715'> +3.9078811E-01 </wgt>
<wgt id='1716'> +3.8712957E-01 </wgt>
<wgt id='1717'> +3.9186735E-01 </wgt>
<wgt id='1718'> +3.7486082E-01 </wgt>
<wgt id='1719'> +3.8536704E-01 </wgt>
<wgt id='1720'> +3.9848243E-01 </wgt>
<wgt id='1721'> +3.7122732E-01 </wgt>
<wgt id='1722'> +3.8433870E-01 </wgt>
<wgt id='1723'> +3.9142171E-01 </wgt>
<wgt id='1724'> +3.9706055E-01 </wgt>
<wgt id='1725'> +3.9775592E-01 </wgt>
<wgt id='1726'> +3.9899975E-01 </wgt>
<wgt id='1727'> +3.8311185E-01 </wgt>
<wgt id='1728'> +3.9190178E-01 </wgt>
<wgt id='1729'> +3.9337157E-01 </wgt>
<wgt id='1730'> +3.8426814E-01 </wgt>
<wgt id='1731'> +3.7193817E-01 </wgt>
<wgt id='1732'> +3.9540437E-01 </wgt>
<wgt id='1733'> +3.9899422E-01 </wgt>
<wgt id='1734'> +3.9119164E-01 </wgt>
<wgt id='1735'> +3.8610804E-01 </wgt>
<wgt id='1736'> +3.8477515E-01 </wgt>
<wgt id='1737'> +3.9431923E-01 </wgt>
<wgt id='1738'> +4.0148725E-01 </wgt>
<wgt id='1739'> +3.7899990E-01 </wgt>
<wgt id='1740'> +3.8445888E-01 </wgt>
<wgt id='1741'> +3.9700016E-01 </wgt>
<wgt id='1742'> +3.9755163E-01 </wgt>
<wgt id='1743'> +3.9246330E-01 </wgt>
<wgt id='1744'> +3.9576897E-01 </wgt>
<wgt id='1745'> +3.7798005E-01 </wgt>
<wgt id='1746'> +3.8218726E-01 </wgt>
<wgt id='1747'> +3.8862445E-01 </wgt>
<wgt id='1748'> +3.9476319E-01 </wgt>
<wgt id='1749'> +4.0226631E-01 </wgt>
<wgt id='1750'> +3.9632561E-01 </wgt>
<wgt id='1751'> +3.8878301E-01 </wgt>
<wgt id='1752'> +3.6711793E-01 </wgt>
<wgt id='1753'> +3.9634840E-01 </wgt>
<wgt id='1754'> +3.9407378E-01 </wgt>
<wgt id='1755'> +3.8469624E-01 </wgt>
<wgt id='1756'> +3.8639083E-01 </wgt>
<wgt id='1757'> +3.8225117E-01 </wgt>
<wgt id='1758'> +3.7495219E-01 </wgt>
<wgt id='1759'> +3.8701459E-01 </wgt>
<wgt id='1760'> +3.7980310E-01 </wgt>
<wgt id='1761'> +3.9196466E-01 </wgt>
<wgt id='1762'> +3.8311185E-01 </wgt>
<wgt id='1763'> +3.8306973E-01 </wgt>
<wgt id='1764'> +3.9970486E-01 </wgt>
<wgt id='1765'> +3.9926001E-01 </wgt>
<wgt id='1766'> +4.1346618E-01 </wgt>
<wgt id='1767'> +3.9682182E-01 </wgt>
<wgt id='1768'> +3.7511546E-01 </wgt>
<wgt id='1769'> +3.9347931E-01 </wgt>
<wgt id='1770'> +3.9525142E-01 </wgt>
<wgt id='1771'> +3.8832745E-01 </wgt>
<wgt id='1772'> +3.9852029E-01 </wgt>
<wgt id='1773'> +3.9291956E-01 </wgt>
<wgt id='1774'> +3.9441547E-01 </wgt>
<wgt id='1775'> +3.9715785E-01 </wgt>
<wgt id='1776'> +3.9741049E-01 </wgt>
<wgt id='1777'> +3.8999130E-01 </wgt>
<wgt id='1778'> +4.0738435E-01 </wgt>
<wgt id='1779'> +3.8593873E-01 </wgt>
<wgt id='1780'> +3.9682551E-01 </wgt>
<wgt id='1781'> +3.9152852E-01 </wgt>
<wgt id='1782'> +4.0224119E-01 </wgt>
<wgt id='1783'> +3.8480336E-01 </wgt>
<wgt id='1784'> +4.0032435E-01 </wgt>
<wgt id='1785'> +3.9136237E-01 </wgt>
<wgt id='1786'> +3.9695028E-01 </wgt>
<wgt id='1787'> +3.9748102E-01 </wgt>
<wgt id='1788'> +3.8529745E-01 </wgt>
<wgt id='1789'> +3.9889046E-01 </wgt>
<wgt id='1790'> +3.9164066E-01 </wgt>
<wgt id='1791'> +3.7992715E-01 </wgt>
<wgt id='1792'> +3.8554021E-01 </wgt>
<wgt id='1793'> +4.1196197E-01 </wgt>
<wgt id='1794'> +3.9768446E-01 </wgt>
<wgt id='1795'> +3.8928269E-01 </wgt>
<wgt id='1796'> +3.8977941E-01 </wgt>
<wgt id='1797'> +3.6988548E-01 </wgt>
<wgt id='1798'> +4.0604628E-01 </wgt>
<wgt id='1799'> +4.0781423E-01 </wgt>
<wgt id='1800'> +3.9493493E-01 </wgt>
<wgt id='1801'> +3.8143236E-01 </wgt>
<wgt id='1802'> +3.8791601E-01 </wgt>
<wgt id='1803'> +3.9044640E-01 </wgt>
<wgt id='1804'> +3.9066946E-01 </wgt>
<wgt id='1805'> +3.9306028E-01 </wgt>
<wgt id='1806'> +3.9507352E-01 </wgt>
<wgt id='1807'> +3.8110656E-01 </wgt>
<wgt id='1808'> +3.9703864E-01 </wgt>
<wgt id='1809'> +3.8991482E-01 </wgt>
<wgt id='1810'> +3.8992991E-01 </wgt>
<wgt id='1811'> +3.9133842E-01 </wgt>
<wgt id='1812'> +3.8405851E-01 </wgt>
<wgt id='1813'> +3.9441535E-01 </wgt>
<wgt id='1814'> +3.7838164E-01 </wgt>
<wgt id='1815'> +3.9591068E-01 </wgt>
<wgt id='1816'> +3.9861794E-01 </wgt>
<wgt id='1817'> +3.9781838E-01 </wgt>
<wgt id='1818'> +3.8877153E-01 </wgt>
<wgt id='1819'> +3.9646321E-01 </wgt>
<wgt id='1820'> +4.0521234E-01 </wgt>
<wgt id='1821'> +4.0549030E-01 </wgt>
<wgt id='1822'> +3.9354361E-01 </wgt>
<wgt id='1823'> +4.0004324E-01 </wgt>
<wgt id='1824'> +3.8449601E-01 </wgt>
<wgt id='1825'> +3.9770750E-01 </wgt>
<wgt id='1826'> +4.0165193E-01 </wgt>
<wgt id='1827'> +4.0086594E-01 </wgt>
<wgt id='1828'> +4.0351257E-01 </wgt>
<wgt id='1829'> +3.9494092E-01 </wgt>
<wgt id='1830'> +3.8723564E-01 </wgt>
<wgt id='1831'> +3.9142148E-01 </wgt>
<wgt id='1832'> +4.0258613E-01 </wgt>
<wgt id='1833'> +3.8927198E-01 </wgt>
<wgt id='1834'> +4.0189843E-01 </wgt>
<wgt id='1835'> +3.9783638E-01 </wgt>
<wgt id='1836'> +4.0002863E-01 </wgt>
<wgt id='1837'> +4.0188239E-01 </wgt>
<wgt id='1838'> +3.9532693E-01 </wgt>
<wgt id='1839'> +4.1827452E-01 </wgt>
<wgt id='1840'> +4.0967388E-01 </wgt>
<wgt id='1841'> +3.9871087E-01 </wgt>
<wgt id='1842'> +4.0300530E-01 </wgt>
<wgt id='1843'> +3.9790581E-01 </wgt>
<wgt id='1844'> +3.9250089E-01 </wgt>
<wgt id='1845'> +3.9123556E-01 </wgt>
<wgt id='1846'> +3.9927069E-01 </wgt>
<wgt id='1847'> +3.9965123E-01 </wgt>
<wgt id='1848'> +3.9695125E-01 </wgt>
<wgt id='1849'> +4.0694079E-01 </wgt>
<wgt id='1850'> +4.1288542E-01 </wgt>
<wgt id='1851'> +4.0584373E-01 </wgt>
<wgt id='1852'> +4.0218106E-01 </wgt>
<wgt id='1853'> +3.8406746E-01 </wgt>
<wgt id='1854'> +3.9875158E-01 </wgt>
<wgt id='1855'> +3.9734703E-01 </wgt>
<wgt id='1856'> +4.0516178E-01 </wgt>
<wgt id='1857'> +4.0397186E-01 </wgt>
<wgt id='1858'> +4.0595740E-01 </wgt>
<wgt id='1859'> +4.0297463E-01 </wgt>
<wgt id='1860'> +4.0050312E-01 </wgt>
<wgt id='1861'> +4.0199944E-01 </wgt>
<wgt id='1862'> +4.0792732E-01 </wgt>
<wgt id='1863'> +3.8376268E-01 </wgt>
<wgt id='1864'> +3.9183282E-01 </wgt>
<wgt id='1865'> +3.9258513E-01 </wgt>
<wgt id='1866'> +3.9832490E-01 </wgt>
<wgt id='1867'> +3.9750799E-01 </wgt>
<wgt id='1868'> +3.9670785E-01 </wgt>
<wgt id='1869'> +4.0664230E-01 </wgt>
<wgt id='1870'> +4.0034277E-01 </wgt>
<wgt id='1871'> +4.0029436E-01 </wgt>
<wgt id='1872'> +3.8948777E-01 </wgt>
<wgt id='1873'> +4.0851945E-01 </wgt>
<wgt id='1874'> +3.9438686E-01 </wgt>
<wgt id='1875'> +3.8578222E-01 </wgt>
<wgt id='1876'> +3.9359319E-01 </wgt>
<wgt id='1877'> +3.9638953E-01 </wgt>
<wgt id='1878'> +3.9122567E-01 </wgt>
<wgt id='1879'> +4.1087168E-01 </wgt>
<wgt id='1880'> +3.8644596E-01 </wgt>
<wgt id='1881'> +4.0581185E-01 </wgt>
<wgt id='1882'> +3.9723023E-01 </wgt>
<wgt id='1883'> +4.1484543E-01 </wgt>
<wgt id='1884'> +4.0003569E-01 </wgt>
<wgt id='1885'> +4.0079258E-01 </wgt>
<wgt id='1886'> +3.9526959E-01 </wgt>
<wgt id='1887'> +4.0684065E-01 </wgt>
<wgt id='1888'> +3.9532982E-01 </wgt>
<wgt id='1889'> +4.0102788E-01 </wgt>
<wgt id='1890'> +4.0791973E-01 </wgt>
<wgt id='1891'> +3.8855935E-01 </wgt>
<wgt id='1892'> +3.9426362E-01 </wgt>
<wgt id='1893'> +4.0664133E-01 </wgt>
<wgt id='1894'> +4.0609753E-01 </wgt>
<wgt id='1895'> +4.0406098E-01 </wgt>
<wgt id='1896'> +3.9979782E-01 </wgt>
<wgt id='1897'> +4.0185979E-01 </wgt>
<wgt id='1898'> +3.9982321E-01 </wgt>
<wgt id='1899'> +3.9280669E-01 </wgt>
<wgt id='1900'> +4.0388397E-01 </wgt>
<wgt id='1901'> +3.7799942E-01 </wgt>
<wgt id='1902'> +3.9080011E-01 </wgt>
<wgt id='1903'> +3.9468623E-01 </wgt>
<wgt id='1904'> +3.9887895E-01 </wgt>
<wgt id='1905'> +3.9374676E-01 </wgt>
<wgt id='1906'> +3.9327765E-01 </wgt>
<wgt id='1907'> +3.9498039E-01 </wgt>
<wgt id='1908'> +4.0809157E-01 </wgt>
<wgt id='1909'> +3.9586945E-01 </wgt>
<wgt id='1910'> +4.1084191E-01 </wgt>
<wgt id='1911'> +3.7759503E-01 </wgt>
<wgt id='1912'> +4.0013650E-01 </wgt>
<wgt id='1913'> +4.0133549E-01 </wgt>
<wgt id='1914'> +4.0968674E-01 </wgt>
<wgt id='1915'> +4.0103127E-01 </wgt>
<wgt id='1916'> +3.8300015E-01 </wgt>
<wgt id='1917'> +4.5434540E-01 </wgt>
<wgt id='1918'> +4.8706430E-01 </wgt>
<wgt id='1919'> +3.9861794E-01 </wgt>
<wgt id='1920'> +3.9781838E-01 </wgt>
<wgt id='1921'> +3.8877153E-01 </wgt>
<wgt id='1922'> +3.9646321E-01 </wgt>
<wgt id='1923'> +4.0521234E-01 </wgt>
<wgt id='1924'> +4.0549030E-01 </wgt>
<wgt id='1925'> +3.9354361E-01 </wgt>
<wgt id='1926'> +4.0004324E-01 </wgt>
<wgt id='1927'> +3.8449601E-01 </wgt>
<wgt id='1928'> +3.9770750E-01 </wgt>
<wgt id='1929'> +4.0165193E-01 </wgt>
<wgt id='1930'> +4.0086594E-01 </wgt>
<wgt id='1931'> +4.0351257E-01 </wgt>
<wgt id='1932'> +3.9494092E-01 </wgt>
<wgt id='1933'> +3.8723564E-01 </wgt>
<wgt id='1934'> +3.9142148E-01 </wgt>
<wgt id='1935'> +4.0258613E-01 </wgt>
<wgt id='1936'> +3.8927198E-01 </wgt>
<wgt id='1937'> +4.0189843E-01 </wgt>
<wgt id='1938'> +3.9783638E-01 </wgt>
<wgt id='1939'> +4.0002863E-01 </wgt>
<wgt id='1940'> +4.0188239E-01 </wgt>
<wgt id='1941'> +3.9532693E-01 </wgt>
<wgt id='1942'> +4.1827452E-01 </wgt>
<wgt id='1943'> +4.0967388E-01 </wgt>
<wgt id='1944'> +3.9871087E-01 </wgt>
<wgt id='1945'> +4.0300530E-01 </wgt>
<wgt id='1946'> +3.9790581E-01 </wgt>
<wgt id='1947'> +3.9250089E-01 </wgt>
<wgt id='1948'> +3.9123556E-01 </wgt>
<wgt id='1949'> +3.9927069E-01 </wgt>
<wgt id='1950'> +3.9965123E-01 </wgt>
<wgt id='1951'> +3.9695125E-01 </wgt>
<wgt id='1952'> +4.0694079E-01 </wgt>
<wgt id='1953'> +4.1288542E-01 </wgt>
<wgt id='1954'> +4.0584373E-01 </wgt>
<wgt id='1955'> +4.0218106E-01 </wgt>
<wgt id='1956'> +3.8406746E-01 </wgt>
<wgt id='1957'> +3.9875158E-01 </wgt>
<wgt id='1958'> +3.9734703E-01 </wgt>
<wgt id='1959'> +4.0516178E-01 </wgt>
<wgt id='1960'> +4.0397186E-01 </wgt>
<wgt id='1961'> +4.0595740E-01 </wgt>
<wgt id='1962'> +4.0297463E-01 </wgt>
<wgt id='1963'> +4.0050312E-01 </wgt>
<wgt id='1964'> +4.0199944E-01 </wgt>
<wgt id='1965'> +4.0792732E-01 </wgt>
<wgt id='1966'> +3.8376268E-01 </wgt>
<wgt id='1967'> +3.9183282E-01 </wgt>
<wgt id='1968'> +3.9258513E-01 </wgt>
<wgt id='1969'> +3.9832490E-01 </wgt>
<wgt id='1970'> +3.9750799E-01 </wgt>
<wgt id='1971'> +3.9670785E-01 </wgt>
<wgt id='1972'> +4.0664230E-01 </wgt>
<wgt id='1973'> +4.0034277E-01 </wgt>
<wgt id='1974'> +4.0029436E-01 </wgt>
<wgt id='1975'> +3.8948777E-01 </wgt>
<wgt id='1976'> +4.0851945E-01 </wgt>
<wgt id='1977'> +3.9438686E-01 </wgt>
<wgt id='1978'> +3.8578222E-01 </wgt>
<wgt id='1979'> +3.9359319E-01 </wgt>
<wgt id='1980'> +3.9638953E-01 </wgt>
<wgt id='1981'> +3.9122567E-01 </wgt>
<wgt id='1982'> +4.1087168E-01 </wgt>
<wgt id='1983'> +3.8644596E-01 </wgt>
<wgt id='1984'> +4.0581185E-01 </wgt>
<wgt id='1985'> +3.9723023E-01 </wgt>
<wgt id='1986'> +4.1484543E-01 </wgt>
<wgt id='1987'> +4.0003569E-01 </wgt>
<wgt id='1988'> +4.0079258E-01 </wgt>
<wgt id='1989'> +3.9526959E-01 </wgt>
<wgt id='1990'> +4.0684065E-01 </wgt>
<wgt id='1991'> +3.9532982E-01 </wgt>
<wgt id='1992'> +4.0102788E-01 </wgt>
<wgt id='1993'> +4.0791973E-01 </wgt>
<wgt id='1994'> +3.8855935E-01 </wgt>
<wgt id='1995'> +3.9426362E-01 </wgt>
<wgt id='1996'> +4.0664133E-01 </wgt>
<wgt id='1997'> +4.0609753E-01 </wgt>
<wgt id='1998'> +4.0406098E-01 </wgt>
<wgt id='1999'> +3.9979782E-01 </wgt>
<wgt id='2000'> +4.0185979E-01 </wgt>
<wgt id='2001'> +3.9982321E-01 </wgt>
<wgt id='2002'> +3.9280669E-01 </wgt>
<wgt id='2003'> +4.0388397E-01 </wgt>
<wgt id='2004'> +3.7799942E-01 </wgt>
<wgt id='2005'> +3.9080011E-01 </wgt>
<wgt id='2006'> +3.9468623E-01 </wgt>
<wgt id='2007'> +3.9887895E-01 </wgt>
<wgt id='2008'> +3.9374676E-01 </wgt>
<wgt id='2009'> +3.9327765E-01 </wgt>
<wgt id='2010'> +3.9498039E-01 </wgt>
<wgt id='2011'> +4.0809157E-01 </wgt>
<wgt id='2012'> +3.9586945E-01 </wgt>
<wgt id='2013'> +4.1084191E-01 </wgt>
<wgt id='2014'> +3.7759503E-01 </wgt>
<wgt id='2015'> +4.0013650E-01 </wgt>
<wgt id='2016'> +4.0133549E-01 </wgt>
<wgt id='2017'> +4.0968674E-01 </wgt>
<wgt id='2018'> +4.0103127E-01 </wgt>
<wgt id='2019'> +3.8300015E-01 </wgt>
<wgt id='2020'> +3.9787806E-01 </wgt>
<wgt id='2021'> +3.9842611E-01 </wgt>
<wgt id='2022'> +3.9652978E-01 </wgt>
</rwgt>
</event>
<event>
13      1 +3.9556008E-01 6.04033700e+02 7.81860800e-03 1.06159300e-01
        2 -1    0    0  501    0 +0.0000000000e+00 +0.0000000000e+00 +1.5847427624e+03 1.5847427624e+03 2.5500000000e-03 0.0000e+00 -1.0000e+00
       21 -1    0    0  502  503 +0.0000000000e+00 +0.0000000000e+00 -1.8642566924e+02 1.8642566924e+02 0.0000000000e+00 0.0000e+00 -1.0000e+00
  8000001  2    1    2  502    0 +1.1025879156e+01 +5.1388712107e+01 +3.7795476877e+02 7.1106368502e+02 5.9999948931e+02 0.0000e+00 0.0000e+00
        1  1    1    2  501    0 +2.8483321173e+01 +9.0256662356e+00 +9.7340353131e+02 9.7386200102e+02 5.0400000000e-03 0.0000e+00 -1.0000e+00
       -5  1    1    2    0  503 -3.9509200329e+01 -6.0414378343e+01 +4.6958793076e+01 8.6242745602e+01 4.6700000000e+00 0.0000e+00 1.0000e+00
        6  2    3    3  502    0 -2.1922867416e+02 -5.3994015565e+01 +5.6897080368e+01 2.9207195593e+02 1.7632976038e+02 0.0000e+00 0.0000e+00
        5  1    6    6  502    0 -1.6057627262e+02 +1.6854299590e+01 +1.1173495201e+01 1.6191189777e+02 4.6700000000e+00 0.0000e+00 -1.0000e+00
       24  2    6    6    0    0 -5.8652401537e+01 -7.0848315155e+01 +4.5723585167e+01 1.3016005816e+02 7.9946272796e+01 0.0000e+00 0.0000e+00
        4  1    8    8  504    0 -3.4684849355e+01 -3.8947783535e+01 +6.7020436560e+01 8.4931268881e+01 1.2700000000e+00 0.0000e+00 -1.0000e+00
       -1  1    8    8    0  504 -2.3967552182e+01 -3.1900531619e+01 -2.1296851393e+01 4.5228789281e+01 5.0400000000e-03 0.0000e+00 1.0000e+00
       23  2    3    3    0    0 +2.3025455331e+02 +1.0538272767e+02 +3.2105768840e+02 4.1899172909e+02 9.1396669242e+01 0.0000e+00 0.0000e+00
        3  1   11   11  505    0 +1.6106247814e+02 +1.0271651299e+02 +1.8298241508e+02 2.6452670628e+02 1.0100000000e-01 0.0000e+00 -1.0000e+00
       -3  1   11   11    0  505 +6.9192075173e+01 +2.6662146832e+00 +1.3807527332e+02 1.5446502281e+02 1.0100000000e-01 0.0000e+00 1.0000e+00
<mgrwt>
<rscale>  1 0.13434285e+03</rscale>
<asrwt>0</asrwt>
<pdfrwt beam="1">  1       21 0.28680873e-01 0.60403371e+03</pdfrwt>
<pdfrwt beam="2">  1        2 0.24380657e+00 0.29879127e+02</pdfrwt>
<totfact> 0.25028113e+03</totfact>
</mgrwt>
<rwgt>
<wgt id='1001'> +3.9556008E-01 </wgt>
<wgt id='1002'> +2.5324409E-01 </wgt>
<wgt id='1003'> +2.5323936E-01 </wgt>
<wgt id='1004'> +2.9467645E-01 </wgt>
<wgt id='1005'> +2.2534993E-01 </wgt>
<wgt id='1006'> +3.5869479E-01 </wgt>
<wgt id='1007'> +2.3381546E-01 </wgt>
<wgt id='1008'> +2.3381130E-01 </wgt>
<wgt id='1009'> +2.7009544E-01 </wgt>
<wgt id='1010'> +2.0912434E-01 </wgt>
<wgt id='1011'> +4.4116859E-01 </wgt>
<wgt id='1012'> +2.7629177E-01 </wgt>
<wgt id='1013'> +2.7628632E-01 </wgt>
<wgt id='1014'> +3.2432612E-01 </wgt>
<wgt id='1015'> +2.4437400E-01 </wgt>
<wgt id='1016'> +3.6448867E-01 </wgt>
<wgt id='1017'> +2.3805505E-01 </wgt>
<wgt id='1018'> +2.3805065E-01 </wgt>
<wgt id='1019'> +2.7628632E-01 </wgt>
<wgt id='1020'> +2.1215471E-01 </wgt>
<wgt id='1021'> +3.3051916E-01 </wgt>
<wgt id='1022'> +2.1979171E-01 </wgt>
<wgt id='1023'> +2.1978783E-01 </wgt>
<wgt id='1024'> +2.5323936E-01 </wgt>
<wgt id='1025'> +1.9687921E-01 </wgt>
<wgt id='1026'> +4.0651461E-01 </wgt>
<wgt id='1027'> +2.5972037E-01 </wgt>
<wgt id='1028'> +2.5971530E-01 </wgt>
<wgt id='1029'> +3.0408562E-01 </wgt>
<wgt id='1030'> +2.3006485E-01 </wgt>
<wgt id='1031'> +4.3193502E-01 </wgt>
<wgt id='1032'> +2.7010058E-01 </wgt>
<wgt id='1033'> +2.7009544E-01 </wgt>
<wgt id='1034'> +3.1464358E-01 </wgt>
<wgt id='1035'> +2.3982096E-01 </wgt>
<wgt id='1036'> +3.9167967E-01 </wgt>
<wgt id='1037'> +2.4937874E-01 </wgt>
<wgt id='1038'> +2.4937421E-01 </wgt>
<wgt id='1039'> +2.8839697E-01 </wgt>
<wgt id='1040'> +2.2255344E-01 </wgt>
<wgt id='1041'> +4.8173759E-01 </wgt>
<wgt id='1042'> +2.9468236E-01 </wgt>
<wgt id='1043'> +2.9467645E-01 </wgt>
<wgt id='1044'> +3.4630230E-01 </wgt>
<wgt id='1045'> +2.6006668E-01 </wgt>
<wgt id='1046'> +3.9556008E-01 </wgt>
<wgt id='1047'> +3.9556008E-01 </wgt>
<wgt id='1048'> +3.9556008E-01 </wgt>
<wgt id='1049'> +3.9576080E-01 </wgt>
<wgt id='1050'> +3.9521050E-01 </wgt>
<wgt id='1051'> +3.9626929E-01 </wgt>
<wgt id='1052'> +3.9476041E-01 </wgt>
<wgt id='1053'> +3.9743487E-01 </wgt>
<wgt id='1054'> +3.9548010E-01 </wgt>
<wgt id='1055'> +3.9572369E-01 </wgt>
<wgt id='1056'> +3.9619875E-01 </wgt>
<wgt id='1057'> +3.9525495E-01 </wgt>
<wgt id='1058'> +3.9560178E-01 </wgt>
<wgt id='1059'> +3.9456946E-01 </wgt>
<wgt id='1060'> +3.9525683E-01 </wgt>
<wgt id='1061'> +3.9569652E-01 </wgt>
<wgt id='1062'> +3.9611222E-01 </wgt>
<wgt id='1063'> +3.9505954E-01 </wgt>
<wgt id='1064'> +3.9564428E-01 </wgt>
<wgt id='1065'> +3.9581219E-01 </wgt>
<wgt id='1066'> +3.9478790E-01 </wgt>
<wgt id='1067'> +3.9648680E-01 </wgt>
<wgt id='1068'> +3.9410802E-01 </wgt>
<wgt id='1069'> +3.9563094E-01 </wgt>
<wgt id='1070'> +3.9555518E-01 </wgt>
<wgt id='1071'> +3.9526509E-01 </wgt>
<wgt id='1072'> +3.9647007E-01 </wgt>
<wgt id='1073'> +3.9531643E-01 </wgt>
<wgt id='1074'> +3.9585976E-01 </wgt>
<wgt id='1075'> +3.9383944E-01 </wgt>
<wgt id='1076'> +3.9664860E-01 </wgt>
<wgt id='1077'> +3.9720830E-01 </wgt>
<wgt id='1078'> +3.9533327E-01 </wgt>
<wgt id='1079'> +3.9767095E-01 </wgt>
<wgt id='1080'> +3.9671164E-01 </wgt>
<wgt id='1081'> +3.9626460E-01 </wgt>
<wgt id='1082'> +3.9638149E-01 </wgt>
<wgt id='1083'> +3.9506814E-01 </wgt>
<wgt id='1084'> +3.9469786E-01 </wgt>
<wgt id='1085'> +3.9654637E-01 </wgt>
<wgt id='1086'> +3.9482364E-01 </wgt>
<wgt id='1087'> +3.9567464E-01 </wgt>
<wgt id='1088'> +3.9592480E-01 </wgt>
<wgt id='1089'> +3.9582217E-01 </wgt>
<wgt id='1090'> +3.9553689E-01 </wgt>
<wgt id='1091'> +3.9483002E-01 </wgt>
<wgt id='1092'> +3.9473625E-01 </wgt>
<wgt id='1093'> +3.9555825E-01 </wgt>
<wgt id='1094'> +3.9565803E-01 </wgt>
<wgt id='1095'> +3.9476039E-01 </wgt>
<wgt id='1096'> +3.9477899E-01 </wgt>
<wgt id='1097'> +3.9542720E-01 </wgt>
<wgt id='1098'> +3.9556535E-01 </wgt>
<wgt id='1099'> +3.9552860E-01 </wgt>
<wgt id='1100'> +3.9567110E-01 </wgt>
<wgt id='1101'> +3.9525022E-01 </wgt>
<wgt id='1102'> +3.9562066E-01 </wgt>
<wgt id='1103'> +3.9604969E-01 </wgt>
<wgt id='1104'> +3.9562880E-01 </wgt>
<wgt id='1105'> +3.9592651E-01 </wgt>
<wgt id='1106'> +3.9585751E-01 </wgt>
<wgt id='1107'> +3.9532521E-01 </wgt>
<wgt id='1108'> +3.9581567E-01 </wgt>
<wgt id='1109'> +3.9587481E-01 </wgt>
<wgt id='1110'> +3.9546138E-01 </wgt>
<wgt id='1111'> +3.9523357E-01 </wgt>
<wgt id='1112'> +3.9583773E-01 </wgt>
<wgt id='1113'> +3.9540998E-01 </wgt>
<wgt id='1114'> +3.9468873E-01 </wgt>
<wgt id='1115'> +3.9589604E-01 </wgt>
<wgt id='1116'> +3.9557833E-01 </wgt>
<wgt id='1117'> +3.9582097E-01 </wgt>
<wgt id='1118'> +3.9550258E-01 </wgt>
<wgt id='1119'> +3.9574239E-01 </wgt>
<wgt id='1120'> +3.9528101E-01 </wgt>
<wgt id='1121'> +3.9615577E-01 </wgt>
<wgt id='1122'> +3.9554392E-01 </wgt>
<wgt id='1123'> +3.9567534E-01 </wgt>
<wgt id='1124'> +3.9539188E-01 </wgt>
<wgt id='1125'> +3.9546687E-01 </wgt>
<wgt id='1126'> +3.9552732E-01 </wgt>
<wgt id='1127'> +3.9586269E-01 </wgt>
<wgt id='1128'> +3.9543858E-01 </wgt>
<wgt id='1129'> +3.9556170E-01 </wgt>
<wgt id='1130'> +3.9571196E-01 </wgt>
<wgt id='1131'> +3.9581833E-01 </wgt>
<wgt id='1132'> +3.9539627E-01 </wgt>
<wgt id='1133'> +3.9569531E-01 </wgt>
<wgt id='1134'> +3.9549191E-01 </wgt>
<wgt id='1135'> +3.9584353E-01 </wgt>
<wgt id='1136'> +3.9573674E-01 </wgt>
<wgt id='1137'> +3.9556737E-01 </wgt>
<wgt id='1138'> +3.9573325E-01 </wgt>
<wgt id='1139'> +3.9553053E-01 </wgt>
<wgt id='1140'> +3.9585352E-01 </wgt>
<wgt id='1141'> +3.9557558E-01 </wgt>
<wgt id='1142'> +3.9563467E-01 </wgt>
<wgt id='1143'> +3.9579056E-01 </wgt>
<wgt id='1144'> +3.9536155E-01 </wgt>
<wgt id='1145'> +3.9540328E-01 </wgt>
<wgt id='1146'> +3.9557945E-01 </wgt>
<wgt id='1147'> +3.9578502E-01 </wgt>
<wgt id='1148'> +3.9556008E-01 </wgt>
<wgt id='1149'> +3.8497396E-01 </wgt>
<wgt id='1150'> +3.8282011E-01 </wgt>
<wgt id='1151'> +3.8460957E-01 </wgt>
<wgt id='1152'> +3.8841654E-01 </wgt>
<wgt id='1153'> +3.8082328E-01 </wgt>
<wgt id='1154'> +3.8697055E-01 </wgt>
<wgt id='1155'> +3.8740192E-01 </wgt>
<wgt id='1156'> +3.8875001E-01 </wgt>
<wgt id='1157'> +3.9091711E-01 </wgt>
<wgt id='1158'> +3.8787186E-01 </wgt>
<wgt id='1159'> +3.6434716E-01 </wgt>
<wgt id='1160'> +3.8357538E-01 </wgt>
<wgt id='1161'> +3.8927058E-01 </wgt>
<wgt id='1162'> +3.7710698E-01 </wgt>
<wgt id='1163'> +3.8961154E-01 </wgt>
<wgt id='1164'> +3.9159572E-01 </wgt>
<wgt id='1165'> +3.8479715E-01 </wgt>
<wgt id='1166'> +3.8784457E-01 </wgt>
<wgt id='1167'> +3.8902561E-01 </wgt>
<wgt id='1168'> +3.8290775E-01 </wgt>
<wgt id='1169'> +3.8024782E-01 </wgt>
<wgt id='1170'> +3.8702674E-01 </wgt>
<wgt id='1171'> +3.8587334E-01 </wgt>
<wgt id='1172'> +3.8845657E-01 </wgt>
<wgt id='1173'> +3.8102665E-01 </wgt>
<wgt id='1174'> +3.9072020E-01 </wgt>
<wgt id='1175'> +3.9029291E-01 </wgt>
<wgt id='1176'> +3.6917985E-01 </wgt>
<wgt id='1177'> +3.9065926E-01 </wgt>
<wgt id='1178'> +3.8662686E-01 </wgt>
<wgt id='1179'> +3.8021234E-01 </wgt>
<wgt id='1180'> +3.8801964E-01 </wgt>
<wgt id='1181'> +3.8658916E-01 </wgt>
<wgt id='1182'> +3.8904701E-01 </wgt>
<wgt id='1183'> +3.8133776E-01 </wgt>
<wgt id='1184'> +3.8474676E-01 </wgt>
<wgt id='1185'> +3.8949903E-01 </wgt>
<wgt id='1186'> +3.8567718E-01 </wgt>
<wgt id='1187'> +3.8505353E-01 </wgt>
<wgt id='1188'> +3.8119499E-01 </wgt>
<wgt id='1189'> +3.8867090E-01 </wgt>
<wgt id='1190'> +3.8507134E-01 </wgt>
<wgt id='1191'> +3.8446807E-01 </wgt>
<wgt id='1192'> +3.7968780E-01 </wgt>
<wgt id='1193'> +3.8450423E-01 </wgt>
<wgt id='1194'> +3.8626668E-01 </wgt>
<wgt id='1195'> +3.8368273E-01 </wgt>
<wgt id='1196'> +3.7999346E-01 </wgt>
<wgt id='1197'> +3.8402307E-01 </wgt>
<wgt id='1198'> +3.8750100E-01 </wgt>
<wgt id='1199'> +3.8409086E-01 </wgt>
<wgt id='1200'> +3.8838472E-01 </wgt>
<wgt id='1201'> +3.8955747E-01 </wgt>
<wgt id='1202'> +3.8567956E-01 </wgt>
<wgt id='1203'> +3.9126510E-01 </wgt>
<wgt id='1204'> +3.8941056E-01 </wgt>
<wgt id='1205'> +3.8050195E-01 </wgt>
<wgt id='1206'> +3.8716767E-01 </wgt>
<wgt id='1207'> +3.8624704E-01 </wgt>
<wgt id='1208'> +3.9082733E-01 </wgt>
<wgt id='1209'> +3.9370105E-01 </wgt>
<wgt id='1210'> +3.7674136E-01 </wgt>
<wgt id='1211'> +3.8418825E-01 </wgt>
<wgt id='1212'> +3.8064154E-01 </wgt>
<wgt id='1213'> +3.9127661E-01 </wgt>
<wgt id='1214'> +3.8722403E-01 </wgt>
<wgt id='1215'> +3.8333722E-01 </wgt>
<wgt id='1216'> +3.8441217E-01 </wgt>
<wgt id='1217'> +3.8055410E-01 </wgt>
<wgt id='1218'> +3.8310678E-01 </wgt>
<wgt id='1219'> +3.7994197E-01 </wgt>
<wgt id='1220'> +3.9099585E-01 </wgt>
<wgt id='1221'> +3.7349973E-01 </wgt>
<wgt id='1222'> +3.8874432E-01 </wgt>
<wgt id='1223'> +3.8289637E-01 </wgt>
<wgt id='1224'> +3.8034928E-01 </wgt>
<wgt id='1225'> +3.8983935E-01 </wgt>
<wgt id='1226'> +3.7612856E-01 </wgt>
<wgt id='1227'> +3.9641086E-01 </wgt>
<wgt id='1228'> +3.8482795E-01 </wgt>
<wgt id='1229'> +3.7380313E-01 </wgt>
<wgt id='1230'> +3.8347928E-01 </wgt>
<wgt id='1231'> +3.8479715E-01 </wgt>
<wgt id='1232'> +3.7628299E-01 </wgt>
<wgt id='1233'> +3.8604227E-01 </wgt>
<wgt id='1234'> +3.9454111E-01 </wgt>
<wgt id='1235'> +3.7426036E-01 </wgt>
<wgt id='1236'> +3.9317744E-01 </wgt>
<wgt id='1237'> +3.8021533E-01 </wgt>
<wgt id='1238'> +3.7497092E-01 </wgt>
<wgt id='1239'> +3.9175567E-01 </wgt>
<wgt id='1240'> +3.9304951E-01 </wgt>
<wgt id='1241'> +3.8965210E-01 </wgt>
<wgt id='1242'> +3.8582446E-01 </wgt>
<wgt id='1243'> +3.8120241E-01 </wgt>
<wgt id='1244'> +3.8338692E-01 </wgt>
<wgt id='1245'> +3.9283701E-01 </wgt>
<wgt id='1246'> +3.7534446E-01 </wgt>
<wgt id='1247'> +3.8127214E-01 </wgt>
<wgt id='1248'> +3.8607537E-01 </wgt>
<wgt id='1249'> +3.8834435E-01 </wgt>
<wgt id='1250'> +3.8680542E-01 </wgt>
<wgt id='1251'> +3.8253649E-01 </wgt>
<wgt id='1252'> +3.9287256E-01 </wgt>
<wgt id='1253'> +3.9010694E-01 </wgt>
<wgt id='1254'> +3.5685509E-01 </wgt>
<wgt id='1255'> +4.0092935E-01 </wgt>
<wgt id='1256'> +4.0360203E-01 </wgt>
<wgt id='1257'> +3.9936817E-01 </wgt>
<wgt id='1258'> +4.0041060E-01 </wgt>
<wgt id='1259'> +4.0118516E-01 </wgt>
<wgt id='1260'> +4.0177889E-01 </wgt>
<wgt id='1261'> +3.9978444E-01 </wgt>
<wgt id='1262'> +4.0154859E-01 </wgt>
<wgt id='1263'> +4.0052518E-01 </wgt>
<wgt id='1264'> +4.0065817E-01 </wgt>
<wgt id='1265'> +4.0111234E-01 </wgt>
<wgt id='1266'> +4.0093788E-01 </wgt>
<wgt id='1267'> +4.0090826E-01 </wgt>
<wgt id='1268'> +4.0472167E-01 </wgt>
<wgt id='1269'> +3.9714511E-01 </wgt>
<wgt id='1270'> +4.0040243E-01 </wgt>
<wgt id='1271'> +4.0105695E-01 </wgt>
<wgt id='1272'> +4.0124882E-01 </wgt>
<wgt id='1273'> +4.0066198E-01 </wgt>
<wgt id='1274'> +4.0019334E-01 </wgt>
<wgt id='1275'> +4.0185581E-01 </wgt>
<wgt id='1276'> +4.0028211E-01 </wgt>
<wgt id='1277'> +4.0160261E-01 </wgt>
<wgt id='1278'> +3.9903245E-01 </wgt>
<wgt id='1279'> +4.0246394E-01 </wgt>
<wgt id='1280'> +4.0074380E-01 </wgt>
<wgt id='1281'> +4.0128595E-01 </wgt>
<wgt id='1282'> +4.0291054E-01 </wgt>
<wgt id='1283'> +3.9851551E-01 </wgt>
<wgt id='1284'> +3.9963262E-01 </wgt>
<wgt id='1285'> +4.0204065E-01 </wgt>
<wgt id='1286'> +4.0238438E-01 </wgt>
<wgt id='1287'> +4.0085144E-01 </wgt>
<wgt id='1288'> +4.0066738E-01 </wgt>
<wgt id='1289'> +4.0096718E-01 </wgt>
<wgt id='1290'> +4.0154821E-01 </wgt>
<wgt id='1291'> +4.0070911E-01 </wgt>
<wgt id='1292'> +4.0249575E-01 </wgt>
<wgt id='1293'> +3.9859480E-01 </wgt>
<wgt id='1294'> +3.9876951E-01 </wgt>
<wgt id='1295'> +4.0135834E-01 </wgt>
<wgt id='1296'> +3.9159187E-01 </wgt>
<wgt id='1297'> +3.9252639E-01 </wgt>
<wgt id='1298'> +3.9082046E-01 </wgt>
<wgt id='1299'> +3.9035516E-01 </wgt>
<wgt id='1300'> +3.9297110E-01 </wgt>
<wgt id='1301'> +3.9068329E-01 </wgt>
<wgt id='1302'> +3.9294266E-01 </wgt>
<wgt id='1303'> +3.9132892E-01 </wgt>
<wgt id='1304'> +3.9175940E-01 </wgt>
<wgt id='1305'> +3.9201490E-01 </wgt>
<wgt id='1306'> +3.9098820E-01 </wgt>
<wgt id='1307'> +3.9375880E-01 </wgt>
<wgt id='1308'> +3.9024069E-01 </wgt>
<wgt id='1309'> +3.9195763E-01 </wgt>
<wgt id='1310'> +3.9108543E-01 </wgt>
<wgt id='1311'> +3.9507350E-01 </wgt>
<wgt id='1312'> +3.9032686E-01 </wgt>
<wgt id='1313'> +3.9202625E-01 </wgt>
<wgt id='1314'> +3.9088877E-01 </wgt>
<wgt id='1315'> +3.9141743E-01 </wgt>
<wgt id='1316'> +3.9174707E-01 </wgt>
<wgt id='1317'> +3.8939067E-01 </wgt>
<wgt id='1318'> +3.9570065E-01 </wgt>
<wgt id='1319'> +3.9242598E-01 </wgt>
<wgt id='1320'> +3.9116050E-01 </wgt>
<wgt id='1321'> +3.9054478E-01 </wgt>
<wgt id='1322'> +3.9214262E-01 </wgt>
<wgt id='1323'> +3.9146253E-01 </wgt>
<wgt id='1324'> +3.9163261E-01 </wgt>
<wgt id='1325'> +3.9197559E-01 </wgt>
<wgt id='1326'> +3.9105967E-01 </wgt>
<wgt id='1327'> +3.9178964E-01 </wgt>
<wgt id='1328'> +3.9153580E-01 </wgt>
<wgt id='1329'> +3.9165378E-01 </wgt>
<wgt id='1330'> +3.9154661E-01 </wgt>
<wgt id='1331'> +3.9191075E-01 </wgt>
<wgt id='1332'> +3.9186255E-01 </wgt>
<wgt id='1333'> +3.9352195E-01 </wgt>
<wgt id='1334'> +3.8904596E-01 </wgt>
<wgt id='1335'> +3.9279963E-01 </wgt>
<wgt id='1336'> +3.9130313E-01 </wgt>
<wgt id='1337'> +3.9159187E-01 </wgt>
<wgt id='1338'> +3.9156771E-01 </wgt>
<wgt id='1339'> +3.9159103E-01 </wgt>
<wgt id='1340'> +3.9160016E-01 </wgt>
<wgt id='1341'> +3.9161741E-01 </wgt>
<wgt id='1342'> +3.9162595E-01 </wgt>
<wgt id='1343'> +3.9160473E-01 </wgt>
<wgt id='1344'> +3.9039367E-01 </wgt>
<wgt id='1345'> +3.9175117E-01 </wgt>
<wgt id='1346'> +3.8905029E-01 </wgt>
<wgt id='1347'> +3.9277078E-01 </wgt>
<wgt id='1348'> +3.8862816E-01 </wgt>
<wgt id='1349'> +3.8987034E-01 </wgt>
<wgt id='1350'> +3.9083065E-01 </wgt>
<wgt id='1351'> +3.9040848E-01 </wgt>
<wgt id='1352'> +3.9037390E-01 </wgt>
<wgt id='1353'> +3.9140396E-01 </wgt>
<wgt id='1354'> +3.8967953E-01 </wgt>
<wgt id='1355'> +3.8955460E-01 </wgt>
<wgt id='1356'> +3.9104215E-01 </wgt>
<wgt id='1357'> +3.9091947E-01 </wgt>
<wgt id='1358'> +3.9006729E-01 </wgt>
<wgt id='1359'> +3.8892275E-01 </wgt>
<wgt id='1360'> +3.9407406E-01 </wgt>
<wgt id='1361'> +3.9295705E-01 </wgt>
<wgt id='1362'> +3.8857537E-01 </wgt>
<wgt id='1363'> +3.9099115E-01 </wgt>
<wgt id='1364'> +3.8968499E-01 </wgt>
<wgt id='1365'> +3.9041036E-01 </wgt>
<wgt id='1366'> +3.9043320E-01 </wgt>
<wgt id='1367'> +3.8880891E-01 </wgt>
<wgt id='1368'> +3.9118812E-01 </wgt>
<wgt id='1369'> +3.8946624E-01 </wgt>
<wgt id='1370'> +3.9125199E-01 </wgt>
<wgt id='1371'> +3.9057297E-01 </wgt>
<wgt id='1372'> +3.9020630E-01 </wgt>
<wgt id='1373'> +3.9147896E-01 </wgt>
<wgt id='1374'> +3.8997353E-01 </wgt>
<wgt id='1375'> +3.9091669E-01 </wgt>
<wgt id='1376'> +3.9026392E-01 </wgt>
<wgt id='1377'> +3.9041882E-01 </wgt>
<wgt id='1378'> +3.9031259E-01 </wgt>
<wgt id='1379'> +3.9119712E-01 </wgt>
<wgt id='1380'> +3.9040710E-01 </wgt>
<wgt id='1381'> +3.8899109E-01 </wgt>
<wgt id='1382'> +3.9026909E-01 </wgt>
<wgt id='1383'> +3.9012514E-01 </wgt>
<wgt id='1384'> +3.9179864E-01 </wgt>
<wgt id='1385'> +3.9039367E-01 </wgt>
<wgt id='1386'> +3.9019425E-01 </wgt>
<wgt id='1387'> +3.9026808E-01 </wgt>
<wgt id='1388'> +3.9032057E-01 </wgt>
<wgt id='1389'> +3.9039568E-01 </wgt>
<wgt id='1390'> +3.9043093E-01 </wgt>
<wgt id='1391'> +3.9042766E-01 </wgt>
<wgt id='1392'> +4.0939980E-01 </wgt>
<wgt id='1393'> +4.0940843E-01 </wgt>
<wgt id='1394'> +4.0938207E-01 </wgt>
<wgt id='1395'> +4.0964569E-01 </wgt>
<wgt id='1396'> +4.0921633E-01 </wgt>
<wgt id='1397'> +4.1080221E-01 </wgt>
<wgt id='1398'> +4.0802849E-01 </wgt>
<wgt id='1399'> +4.1088768E-01 </wgt>
<wgt id='1400'> +4.0753687E-01 </wgt>
<wgt id='1401'> +4.0793426E-01 </wgt>
<wgt id='1402'> +4.1119299E-01 </wgt>
<wgt id='1403'> +4.0910014E-01 </wgt>
<wgt id='1404'> +4.0998478E-01 </wgt>
<wgt id='1405'> +4.0888195E-01 </wgt>
<wgt id='1406'> +4.1009710E-01 </wgt>
<wgt id='1407'> +4.0894898E-01 </wgt>
<wgt id='1408'> +4.0969905E-01 </wgt>
<wgt id='1409'> +4.1120413E-01 </wgt>
<wgt id='1410'> +4.0731271E-01 </wgt>
<wgt id='1411'> +4.0910149E-01 </wgt>
<wgt id='1412'> +4.0960483E-01 </wgt>
<wgt id='1413'> +4.1108015E-01 </wgt>
<wgt id='1414'> +4.0761762E-01 </wgt>
<wgt id='1415'> +4.1100143E-01 </wgt>
<wgt id='1416'> +4.0766427E-01 </wgt>
<wgt id='1417'> +4.0876843E-01 </wgt>
<wgt id='1418'> +4.1014073E-01 </wgt>
<wgt id='1419'> +4.0955510E-01 </wgt>
<wgt id='1420'> +4.0922134E-01 </wgt>
<wgt id='1421'> +4.1097432E-01 </wgt>
<wgt id='1422'> +4.0763205E-01 </wgt>
<wgt id='1423'> +4.1011684E-01 </wgt>
<wgt id='1424'> +4.0858129E-01 </wgt>
<wgt id='1425'> +4.0944802E-01 </wgt>
<wgt id='1426'> +4.0929066E-01 </wgt>
<wgt id='1427'> +4.0869275E-01 </wgt>
<wgt id='1428'> +4.0866057E-01 </wgt>
<wgt id='1429'> +4.0896975E-01 </wgt>
<wgt id='1430'> +4.0976686E-01 </wgt>
<wgt id='1431'> +4.0913306E-01 </wgt>
<wgt id='1432'> +4.0949683E-01 </wgt>
<wgt id='1433'> +4.0767044E-01 </wgt>
<wgt id='1434'> +4.1097742E-01 </wgt>
<wgt id='1435'> +4.0879385E-01 </wgt>
<wgt id='1436'> +4.0996121E-01 </wgt>
<wgt id='1437'> +4.0900614E-01 </wgt>
<wgt id='1438'> +4.1027052E-01 </wgt>
<wgt id='1439'> +4.1105567E-01 </wgt>
<wgt id='1440'> +4.0626747E-01 </wgt>
<wgt id='1441'> +4.1004389E-01 </wgt>
<wgt id='1442'> +4.0999104E-01 </wgt>
<wgt id='1443'> +4.0554812E-01 </wgt>
<wgt id='1444'> +4.0557786E-01 </wgt>
<wgt id='1445'> +4.0552008E-01 </wgt>
<wgt id='1446'> +4.0580775E-01 </wgt>
<wgt id='1447'> +4.0536828E-01 </wgt>
<wgt id='1448'> +4.0703615E-01 </wgt>
<wgt id='1449'> +4.0416051E-01 </wgt>
<wgt id='1450'> +4.0697800E-01 </wgt>
<wgt id='1451'> +4.0395483E-01 </wgt>
<wgt id='1452'> +4.0412474E-01 </wgt>
<wgt id='1453'> +4.0692976E-01 </wgt>
<wgt id='1454'> +4.0516306E-01 </wgt>
<wgt id='1455'> +4.0637454E-01 </wgt>
<wgt id='1456'> +4.0493485E-01 </wgt>
<wgt id='1457'> +4.0663418E-01 </wgt>
<wgt id='1458'> +4.0518494E-01 </wgt>
<wgt id='1459'> +4.0575139E-01 </wgt>
<wgt id='1460'> +4.0732939E-01 </wgt>
<wgt id='1461'> +4.0341663E-01 </wgt>
<wgt id='1462'> +4.0487617E-01 </wgt>
<wgt id='1463'> +4.0612360E-01 </wgt>
<wgt id='1464'> +4.0706944E-01 </wgt>
<wgt id='1465'> +4.0355853E-01 </wgt>
<wgt id='1466'> +4.0764887E-01 </wgt>
<wgt id='1467'> +4.0400202E-01 </wgt>
<wgt id='1468'> +4.0560719E-01 </wgt>
<wgt id='1469'> +4.0551471E-01 </wgt>
<wgt id='1470'> +4.0579849E-01 </wgt>
<wgt id='1471'> +4.0536742E-01 </wgt>
<wgt id='1472'> +4.0686550E-01 </wgt>
<wgt id='1473'> +4.0402798E-01 </wgt>
<wgt id='1474'> +4.0609732E-01 </wgt>
<wgt id='1475'> +4.0464707E-01 </wgt>
<wgt id='1476'> +4.0552010E-01 </wgt>
<wgt id='1477'> +4.0550825E-01 </wgt>
<wgt id='1478'> +4.0492093E-01 </wgt>
<wgt id='1479'> +4.0487061E-01 </wgt>
<wgt id='1480'> +4.0533856E-01 </wgt>
<wgt id='1481'> +4.0578694E-01 </wgt>
<wgt id='1482'> +4.0528205E-01 </wgt>
<wgt id='1483'> +4.0570116E-01 </wgt>
<wgt id='1484'> +4.0379725E-01 </wgt>
<wgt id='1485'> +4.0720894E-01 </wgt>
<wgt id='1486'> +4.0507652E-01 </wgt>
<wgt id='1487'> +4.0596700E-01 </wgt>
<wgt id='1488'> +4.0509970E-01 </wgt>
<wgt id='1489'> +4.0650958E-01 </wgt>
<wgt id='1490'> +4.0792518E-01 </wgt>
<wgt id='1491'> +4.0223401E-01 </wgt>
<wgt id='1492'> +4.0664465E-01 </wgt>
<wgt id='1493'> +4.0617246E-01 </wgt>
<wgt id='1494'> +3.9043304E-01 </wgt>
<wgt id='1495'> +3.8535169E-01 </wgt>
<wgt id='1496'> +3.8710231E-01 </wgt>
<wgt id='1497'> +3.8882820E-01 </wgt>
<wgt id='1498'> +3.9181654E-01 </wgt>
<wgt id='1499'> +3.9037473E-01 </wgt>
<wgt id='1500'> +3.9373723E-01 </wgt>
<wgt id='1501'> +3.9308917E-01 </wgt>
<wgt id='1502'> +3.9242285E-01 </wgt>
<wgt id='1503'> +3.9175350E-01 </wgt>
<wgt id='1504'> +3.9108284E-01 </wgt>
<wgt id='1505'> +3.8973259E-01 </wgt>
<wgt id='1506'> +3.8905550E-01 </wgt>
<wgt id='1507'> +3.8840126E-01 </wgt>
<wgt id='1508'> +3.9037473E-01 </wgt>
<wgt id='1509'> +3.9054940E-01 </wgt>
<wgt id='1510'> +3.9045848E-01 </wgt>
<wgt id='1511'> +3.9030800E-01 </wgt>
<wgt id='1512'> +3.9023780E-01 </wgt>
<wgt id='1513'> +3.9209165E-01 </wgt>
<wgt id='1514'> +3.9192614E-01 </wgt>
<wgt id='1515'> +3.9229839E-01 </wgt>
<wgt id='1516'> +3.9271079E-01 </wgt>
<wgt id='1517'> +3.9147434E-01 </wgt>
<wgt id='1518'> +3.9278731E-01 </wgt>
<wgt id='1519'> +3.9180867E-01 </wgt>
<wgt id='1520'> +3.9426844E-01 </wgt>
<wgt id='1521'> +3.8991419E-01 </wgt>
<wgt id='1522'> +3.9134741E-01 </wgt>
<wgt id='1523'> +3.9280628E-01 </wgt>
<wgt id='1524'> +3.9397833E-01 </wgt>
<wgt id='1525'> +3.9127208E-01 </wgt>
<wgt id='1526'> +3.9215625E-01 </wgt>
<wgt id='1527'> +3.9201621E-01 </wgt>
<wgt id='1528'> +3.9140982E-01 </wgt>
<wgt id='1529'> +3.9283287E-01 </wgt>
<wgt id='1530'> +3.9489095E-01 </wgt>
<wgt id='1531'> +3.9051214E-01 </wgt>
<wgt id='1532'> +3.9315164E-01 </wgt>
<wgt id='1533'> +3.9063288E-01 </wgt>
<wgt id='1534'> +3.9092135E-01 </wgt>
<wgt id='1535'> +3.9291311E-01 </wgt>
<wgt id='1536'> +3.9040092E-01 </wgt>
<wgt id='1537'> +3.9373942E-01 </wgt>
<wgt id='1538'> +3.9145762E-01 </wgt>
<wgt id='1539'> +3.9347812E-01 </wgt>
<wgt id='1540'> +3.9184980E-01 </wgt>
<wgt id='1541'> +3.9214230E-01 </wgt>
<wgt id='1542'> +3.9118514E-01 </wgt>
<wgt id='1543'> +3.9477275E-01 </wgt>
<wgt id='1544'> +3.9199353E-01 </wgt>
<wgt id='1545'> +3.9150981E-01 </wgt>
<wgt id='1546'> +3.9146462E-01 </wgt>
<wgt id='1547'> +3.9236030E-01 </wgt>
<wgt id='1548'> +3.9193622E-01 </wgt>
<wgt id='1549'> +3.9132553E-01 </wgt>
<wgt id='1550'> +3.9216323E-01 </wgt>
<wgt id='1551'> +3.9179085E-01 </wgt>
<wgt id='1552'> +3.9174304E-01 </wgt>
<wgt id='1553'> +3.9219149E-01 </wgt>
<wgt id='1554'> +3.9259738E-01 </wgt>
<wgt id='1555'> +3.9032120E-01 </wgt>
<wgt id='1556'> +3.9264580E-01 </wgt>
<wgt id='1557'> +3.9216073E-01 </wgt>
<wgt id='1558'> +3.9002118E-01 </wgt>
<wgt id='1559'> +3.9319358E-01 </wgt>
<wgt id='1560'> +3.9371826E-01 </wgt>
<wgt id='1561'> +3.9129599E-01 </wgt>
<wgt id='1562'> +3.9035919E-01 </wgt>
<wgt id='1563'> +3.9297460E-01 </wgt>
<wgt id='1564'> +3.9209165E-01 </wgt>
<wgt id='1565'> +3.9012293E-01 </wgt>
<wgt id='1566'> +3.9283239E-01 </wgt>
<wgt id='1567'> +3.9157398E-01 </wgt>
<wgt id='1568'> +3.9482524E-01 </wgt>
<wgt id='1569'> +3.9418384E-01 </wgt>
<wgt id='1570'> +3.9351647E-01 </wgt>
<wgt id='1571'> +3.9283608E-01 </wgt>
<wgt id='1572'> +3.9219607E-01 </wgt>
<wgt id='1573'> +3.9092987E-01 </wgt>
<wgt id='1574'> +3.9012555E-01 </wgt>
<wgt id='1575'> +3.8951220E-01 </wgt>
<wgt id='1576'> +3.9157398E-01 </wgt>
<wgt id='1577'> +3.9165853E-01 </wgt>
<wgt id='1578'> +3.9161456E-01 </wgt>
<wgt id='1579'> +3.9154186E-01 </wgt>
<wgt id='1580'> +3.9152988E-01 </wgt>
<wgt id='1581'> +3.9117323E-01 </wgt>
<wgt id='1582'> +3.9153503E-01 </wgt>
<wgt id='1583'> +3.9284525E-01 </wgt>
<wgt id='1584'> +3.8957527E-01 </wgt>
<wgt id='1585'> +3.9242026E-01 </wgt>
<wgt id='1586'> +3.8899651E-01 </wgt>
<wgt id='1587'> +3.8736031E-01 </wgt>
<wgt id='1588'> +3.9417076E-01 </wgt>
<wgt id='1589'> +3.9094107E-01 </wgt>
<wgt id='1590'> +3.9184219E-01 </wgt>
<wgt id='1591'> +3.9051154E-01 </wgt>
<wgt id='1592'> +3.9136681E-01 </wgt>
<wgt id='1593'> +3.9188630E-01 </wgt>
<wgt id='1594'> +3.9103104E-01 </wgt>
<wgt id='1595'> +3.9080743E-01 </wgt>
<wgt id='1596'> +3.9361650E-01 </wgt>
<wgt id='1597'> +3.9203370E-01 </wgt>
<wgt id='1598'> +3.9150540E-01 </wgt>
<wgt id='1599'> +3.9133440E-01 </wgt>
<wgt id='1600'> +3.9203985E-01 </wgt>
<wgt id='1601'> +3.9055690E-01 </wgt>
<wgt id='1602'> +3.9191196E-01 </wgt>
<wgt id='1603'> +3.9191939E-01 </wgt>
<wgt id='1604'> +3.9149039E-01 </wgt>
<wgt id='1605'> +3.9045481E-01 </wgt>
<wgt id='1606'> +3.9147901E-01 </wgt>
<wgt id='1607'> +3.9165412E-01 </wgt>
<wgt id='1608'> +3.9165710E-01 </wgt>
<wgt id='1609'> +3.9204612E-01 </wgt>
<wgt id='1610'> +3.9094000E-01 </wgt>
<wgt id='1611'> +3.9287333E-01 </wgt>
<wgt id='1612'> +3.8978622E-01 </wgt>
<wgt id='1613'> +3.8958142E-01 </wgt>
<wgt id='1614'> +3.9036718E-01 </wgt>
<wgt id='1615'> +3.9045126E-01 </wgt>
<wgt id='1616'> +3.8936929E-01 </wgt>
<wgt id='1617'> +3.8938685E-01 </wgt>
<wgt id='1618'> +3.9027770E-01 </wgt>
<wgt id='1619'> +3.8858931E-01 </wgt>
<wgt id='1620'> +3.8913481E-01 </wgt>
<wgt id='1621'> +3.8988153E-01 </wgt>
<wgt id='1622'> +3.9073984E-01 </wgt>
<wgt id='1623'> +3.8953797E-01 </wgt>
<wgt id='1624'> +3.8923053E-01 </wgt>
<wgt id='1625'> +3.9021040E-01 </wgt>
<wgt id='1626'> +3.9144753E-01 </wgt>
<wgt id='1627'> +3.8953803E-01 </wgt>
<wgt id='1628'> +3.8979663E-01 </wgt>
<wgt id='1629'> +3.9035374E-01 </wgt>
<wgt id='1630'> +3.9040314E-01 </wgt>
<wgt id='1631'> +3.9014395E-01 </wgt>
<wgt id='1632'> +3.9064513E-01 </wgt>
<wgt id='1633'> +3.8928276E-01 </wgt>
<wgt id='1634'> +3.9103907E-01 </wgt>
<wgt id='1635'> +3.8920254E-01 </wgt>
<wgt id='1636'> +3.8966112E-01 </wgt>
<wgt id='1637'> +3.9105230E-01 </wgt>
<wgt id='1638'> +3.8966088E-01 </wgt>
<wgt id='1639'> +3.9072255E-01 </wgt>
<wgt id='1640'> +3.9021370E-01 </wgt>
<wgt id='1641'> +3.8609453E-01 </wgt>
<wgt id='1642'> +3.8886133E-01 </wgt>
<wgt id='1643'> +3.8964533E-01 </wgt>
<wgt id='1644'> +3.8877642E-01 </wgt>
<wgt id='1645'> +3.8914551E-01 </wgt>
<wgt id='1646'> +3.9048553E-01 </wgt>
<wgt id='1647'> +3.8918473E-01 </wgt>
<wgt id='1648'> +3.8932646E-01 </wgt>
<wgt id='1649'> +3.9021255E-01 </wgt>
<wgt id='1650'> +3.8947703E-01 </wgt>
<wgt id='1651'> +3.8975697E-01 </wgt>
<wgt id='1652'> +3.8939119E-01 </wgt>
<wgt id='1653'> +3.8954468E-01 </wgt>
<wgt id='1654'> +3.8958289E-01 </wgt>
<wgt id='1655'> +3.9045311E-01 </wgt>
<wgt id='1656'> +3.8968806E-01 </wgt>
<wgt id='1657'> +3.8961167E-01 </wgt>
<wgt id='1658'> +3.9013149E-01 </wgt>
<wgt id='1659'> +3.9031750E-01 </wgt>
<wgt id='1660'> +3.9021325E-01 </wgt>
<wgt id='1661'> +3.9013588E-01 </wgt>
<wgt id='1662'> +3.9022014E-01 </wgt>
<wgt id='1663'> +3.9064787E-01 </wgt>
<wgt id='1664'> +3.9006737E-01 </wgt>
<wgt id='1665'> +3.9012591E-01 </wgt>
<wgt id='1666'> +3.9032893E-01 </wgt>
<wgt id='1667'> +3.8979467E-01 </wgt>
<wgt id='1668'> +3.8936228E-01 </wgt>
<wgt id='1669'> +3.8951743E-01 </wgt>
<wgt id='1670'> +3.8915741E-01 </wgt>
<wgt id='1671'> +3.8990661E-01 </wgt>
<wgt id='1672'> +3.8984428E-01 </wgt>
<wgt id='1673'> +3.8986315E-01 </wgt>
<wgt id='1674'> +3.8975777E-01 </wgt>
<wgt id='1675'> +3.8960929E-01 </wgt>
<wgt id='1676'> +3.8894134E-01 </wgt>
<wgt id='1677'> +3.8982831E-01 </wgt>
<wgt id='1678'> +3.9011077E-01 </wgt>
<wgt id='1679'> +3.9031909E-01 </wgt>
<wgt id='1680'> +3.9058841E-01 </wgt>
<wgt id='1681'> +3.8971557E-01 </wgt>
<wgt id='1682'> +3.8977122E-01 </wgt>
<wgt id='1683'> +3.8960556E-01 </wgt>
<wgt id='1684'> +3.8979306E-01 </wgt>
<wgt id='1685'> +3.8919408E-01 </wgt>
<wgt id='1686'> +3.8980497E-01 </wgt>
<wgt id='1687'> +3.8953994E-01 </wgt>
<wgt id='1688'> +3.8965188E-01 </wgt>
<wgt id='1689'> +3.9022174E-01 </wgt>
<wgt id='1690'> +3.8983556E-01 </wgt>
<wgt id='1691'> +3.9032538E-01 </wgt>
<wgt id='1692'> +3.8960771E-01 </wgt>
<wgt id='1693'> +3.9021740E-01 </wgt>
<wgt id='1694'> +3.9026477E-01 </wgt>
<wgt id='1695'> +3.8995638E-01 </wgt>
<wgt id='1696'> +3.8966588E-01 </wgt>
<wgt id='1697'> +3.8982600E-01 </wgt>
<wgt id='1698'> +3.8968973E-01 </wgt>
<wgt id='1699'> +3.8970933E-01 </wgt>
<wgt id='1700'> +3.8994385E-01 </wgt>
<wgt id='1701'> +3.8970392E-01 </wgt>
<wgt id='1702'> +3.8964008E-01 </wgt>
<wgt id='1703'> +3.8990856E-01 </wgt>
<wgt id='1704'> +3.8996254E-01 </wgt>
<wgt id='1705'> +3.8971117E-01 </wgt>
<wgt id='1706'> +3.8963721E-01 </wgt>
<wgt id='1707'> +3.8971386E-01 </wgt>
<wgt id='1708'> +3.8946473E-01 </wgt>
<wgt id='1709'> +3.8976413E-01 </wgt>
<wgt id='1710'> +3.8958895E-01 </wgt>
<wgt id='1711'> +3.8976184E-01 </wgt>
<wgt id='1712'> +3.8950502E-01 </wgt>
<wgt id='1713'> +3.8349355E-01 </wgt>
<wgt id='1714'> +3.9512847E-01 </wgt>
<wgt id='1715'> +3.8688834E-01 </wgt>
<wgt id='1716'> +3.8290451E-01 </wgt>
<wgt id='1717'> +3.8550707E-01 </wgt>
<wgt id='1718'> +3.8227433E-01 </wgt>
<wgt id='1719'> +3.8142144E-01 </wgt>
<wgt id='1720'> +3.9773398E-01 </wgt>
<wgt id='1721'> +3.7774477E-01 </wgt>
<wgt id='1722'> +3.8351741E-01 </wgt>
<wgt id='1723'> +3.8675818E-01 </wgt>
<wgt id='1724'> +3.9334410E-01 </wgt>
<wgt id='1725'> +3.9368182E-01 </wgt>
<wgt id='1726'> +3.9352606E-01 </wgt>
<wgt id='1727'> +3.8745715E-01 </wgt>
<wgt id='1728'> +3.8739209E-01 </wgt>
<wgt id='1729'> +3.8727657E-01 </wgt>
<wgt id='1730'> +3.8122757E-01 </wgt>
<wgt id='1731'> +3.6257437E-01 </wgt>
<wgt id='1732'> +3.9909737E-01 </wgt>
<wgt id='1733'> +3.9131231E-01 </wgt>
<wgt id='1734'> +3.8808021E-01 </wgt>
<wgt id='1735'> +3.7829647E-01 </wgt>
<wgt id='1736'> +3.8664269E-01 </wgt>
<wgt id='1737'> +3.8836744E-01 </wgt>
<wgt id='1738'> +3.9218818E-01 </wgt>
<wgt id='1739'> +3.8206459E-01 </wgt>
<wgt id='1740'> +3.8529558E-01 </wgt>
<wgt id='1741'> +3.8546397E-01 </wgt>
<wgt id='1742'> +3.9707676E-01 </wgt>
<wgt id='1743'> +3.7800199E-01 </wgt>
<wgt id='1744'> +3.9289551E-01 </wgt>
<wgt id='1745'> +3.7487103E-01 </wgt>
<wgt id='1746'> +3.8698699E-01 </wgt>
<wgt id='1747'> +3.8911848E-01 </wgt>
<wgt id='1748'> +3.8450577E-01 </wgt>
<wgt id='1749'> +3.9860461E-01 </wgt>
<wgt id='1750'> +3.8716529E-01 </wgt>
<wgt id='1751'> +3.8841577E-01 </wgt>
<wgt id='1752'> +3.7152393E-01 </wgt>
<wgt id='1753'> +3.8439954E-01 </wgt>
<wgt id='1754'> +3.9049919E-01 </wgt>
<wgt id='1755'> +3.9170607E-01 </wgt>
<wgt id='1756'> +3.7911721E-01 </wgt>
<wgt id='1757'> +3.8096786E-01 </wgt>
<wgt id='1758'> +3.8212509E-01 </wgt>
<wgt id='1759'> +3.8488352E-01 </wgt>
<wgt id='1760'> +3.8239585E-01 </wgt>
<wgt id='1761'> +3.8795962E-01 </wgt>
<wgt id='1762'> +3.8745715E-01 </wgt>
<wgt id='1763'> +3.8548327E-01 </wgt>
<wgt id='1764'> +3.9142781E-01 </wgt>
<wgt id='1765'> +3.9113376E-01 </wgt>
<wgt id='1766'> +4.0202088E-01 </wgt>
<wgt id='1767'> +3.8344370E-01 </wgt>
<wgt id='1768'> +3.7480978E-01 </wgt>
<wgt id='1769'> +3.8897051E-01 </wgt>
<wgt id='1770'> +3.9531424E-01 </wgt>
<wgt id='1771'> +3.8231646E-01 </wgt>
<wgt id='1772'> +3.8745100E-01 </wgt>
<wgt id='1773'> +3.9211662E-01 </wgt>
<wgt id='1774'> +3.7857931E-01 </wgt>
<wgt id='1775'> +3.8683275E-01 </wgt>
<wgt id='1776'> +3.9073145E-01 </wgt>
<wgt id='1777'> +3.8788509E-01 </wgt>
<wgt id='1778'> +3.8907119E-01 </wgt>
<wgt id='1779'> +3.8488294E-01 </wgt>
<wgt id='1780'> +3.9529408E-01 </wgt>
<wgt id='1781'> +3.9065141E-01 </wgt>
<wgt id='1782'> +3.9578892E-01 </wgt>
<wgt id='1783'> +3.8376418E-01 </wgt>
<wgt id='1784'> +3.9368806E-01 </wgt>
<wgt id='1785'> +3.9392778E-01 </wgt>
<wgt id='1786'> +3.9221195E-01 </wgt>
<wgt id='1787'> +3.8844790E-01 </wgt>
<wgt id='1788'> +3.8243671E-01 </wgt>
<wgt id='1789'> +3.9204765E-01 </wgt>
<wgt id='1790'> +3.9244055E-01 </wgt>
<wgt id='1791'> +3.7313469E-01 </wgt>
<wgt id='1792'> +3.8942097E-01 </wgt>
<wgt id='1793'> +3.9877809E-01 </wgt>
<wgt id='1794'> +3.8263451E-01 </wgt>
<wgt id='1795'> +3.7384858E-01 </wgt>
<wgt id='1796'> +3.8932637E-01 </wgt>
<wgt id='1797'> +3.8404023E-01 </wgt>
<wgt id='1798'> +3.8959657E-01 </wgt>
<wgt id='1799'> +3.9360193E-01 </wgt>
<wgt id='1800'> +3.9045005E-01 </wgt>
<wgt id='1801'> +3.7892041E-01 </wgt>
<wgt id='1802'> +3.8398225E-01 </wgt>
<wgt id='1803'> +3.8723395E-01 </wgt>
<wgt id='1804'> +3.9299787E-01 </wgt>
<wgt id='1805'> +3.8672770E-01 </wgt>
<wgt id='1806'> +3.8519065E-01 </wgt>
<wgt id='1807'> +3.7894895E-01 </wgt>
<wgt id='1808'> +3.8771055E-01 </wgt>
<wgt id='1809'> +3.8453568E-01 </wgt>
<wgt id='1810'> +3.8456578E-01 </wgt>
<wgt id='1811'> +3.8565128E-01 </wgt>
<wgt id='1812'> +3.8521826E-01 </wgt>
<wgt id='1813'> +3.8964441E-01 </wgt>
<wgt id='1814'> +3.8376501E-01 </wgt>
<wgt id='1815'> +3.9333880E-01 </wgt>
<wgt id='1816'> +3.9758734E-01 </wgt>
<wgt id='1817'> +4.0391589E-01 </wgt>
<wgt id='1818'> +3.9430125E-01 </wgt>
<wgt id='1819'> +4.0327259E-01 </wgt>
<wgt id='1820'> +4.0585568E-01 </wgt>
<wgt id='1821'> +4.0808266E-01 </wgt>
<wgt id='1822'> +4.0116363E-01 </wgt>
<wgt id='1823'> +3.9856960E-01 </wgt>
<wgt id='1824'> +3.9460289E-01 </wgt>
<wgt id='1825'> +3.9592671E-01 </wgt>
<wgt id='1826'> +3.8944401E-01 </wgt>
<wgt id='1827'> +3.9171496E-01 </wgt>
<wgt id='1828'> +4.0157677E-01 </wgt>
<wgt id='1829'> +4.0186755E-01 </wgt>
<wgt id='1830'> +3.9220021E-01 </wgt>
<wgt id='1831'> +4.0281904E-01 </wgt>
<wgt id='1832'> +3.9386961E-01 </wgt>
<wgt id='1833'> +3.9141251E-01 </wgt>
<wgt id='1834'> +3.8962126E-01 </wgt>
<wgt id='1835'> +4.0138990E-01 </wgt>
<wgt id='1836'> +4.0434349E-01 </wgt>
<wgt id='1837'> +4.0101660E-01 </wgt>
<wgt id='1838'> +3.9123179E-01 </wgt>
<wgt id='1839'> +4.1621503E-01 </wgt>
<wgt id='1840'> +3.9905400E-01 </wgt>
<wgt id='1841'> +3.9811809E-01 </wgt>
<wgt id='1842'> +4.0082781E-01 </wgt>
<wgt id='1843'> +3.8653794E-01 </wgt>
<wgt id='1844'> +3.9998091E-01 </wgt>
<wgt id='1845'> +3.9804473E-01 </wgt>
<wgt id='1846'> +4.0079426E-01 </wgt>
<wgt id='1847'> +3.9624178E-01 </wgt>
<wgt id='1848'> +3.9739736E-01 </wgt>
<wgt id='1849'> +3.9762463E-01 </wgt>
<wgt id='1850'> +4.0011161E-01 </wgt>
<wgt id='1851'> +3.9654753E-01 </wgt>
<wgt id='1852'> +3.9787065E-01 </wgt>
<wgt id='1853'> +3.9083486E-01 </wgt>
<wgt id='1854'> +4.0064236E-01 </wgt>
<wgt id='1855'> +3.9919287E-01 </wgt>
<wgt id='1856'> +4.0043143E-01 </wgt>
<wgt id='1857'> +4.0703835E-01 </wgt>
<wgt id='1858'> +3.9494994E-01 </wgt>
<wgt id='1859'> +3.9855547E-01 </wgt>
<wgt id='1860'> +3.9691423E-01 </wgt>
<wgt id='1861'> +3.9281804E-01 </wgt>
<wgt id='1862'> +4.0047189E-01 </wgt>
<wgt id='1863'> +3.9209389E-01 </wgt>
<wgt id='1864'> +3.9527322E-01 </wgt>
<wgt id='1865'> +3.9908790E-01 </wgt>
<wgt id='1866'> +3.9839915E-01 </wgt>
<wgt id='1867'> +3.9929829E-01 </wgt>
<wgt id='1868'> +3.9314537E-01 </wgt>
<wgt id='1869'> +4.0581662E-01 </wgt>
<wgt id='1870'> +3.9755280E-01 </wgt>
<wgt id='1871'> +3.9539590E-01 </wgt>
<wgt id='1872'> +3.8861350E-01 </wgt>
<wgt id='1873'> +4.0344206E-01 </wgt>
<wgt id='1874'> +3.9841682E-01 </wgt>
<wgt id='1875'> +3.9378842E-01 </wgt>
<wgt id='1876'> +3.9684878E-01 </wgt>
<wgt id='1877'> +3.9891205E-01 </wgt>
<wgt id='1878'> +3.9563407E-01 </wgt>
<wgt id='1879'> +4.0629431E-01 </wgt>
<wgt id='1880'> +3.7963426E-01 </wgt>
<wgt id='1881'> +3.9936324E-01 </wgt>
<wgt id='1882'> +3.9249922E-01 </wgt>
<wgt id='1883'> +4.1553221E-01 </wgt>
<wgt id='1884'> +3.9305728E-01 </wgt>
<wgt id='1885'> +3.8863552E-01 </wgt>
<wgt id='1886'> +3.8796293E-01 </wgt>
<wgt id='1887'> +3.9921410E-01 </wgt>
<wgt id='1888'> +4.0185772E-01 </wgt>
<wgt id='1889'> +3.9408160E-01 </wgt>
<wgt id='1890'> +4.0528610E-01 </wgt>
<wgt id='1891'> +4.0004451E-01 </wgt>
<wgt id='1892'> +4.0061873E-01 </wgt>
<wgt id='1893'> +3.9554258E-01 </wgt>
<wgt id='1894'> +4.0230019E-01 </wgt>
<wgt id='1895'> +4.0271400E-01 </wgt>
<wgt id='1896'> +3.9259237E-01 </wgt>
<wgt id='1897'> +3.9994128E-01 </wgt>
<wgt id='1898'> +3.9949556E-01 </wgt>
<wgt id='1899'> +3.9527380E-01 </wgt>
<wgt id='1900'> +3.9745499E-01 </wgt>
<wgt id='1901'> +3.9048657E-01 </wgt>
<wgt id='1902'> +3.8961378E-01 </wgt>
<wgt id='1903'> +3.9486238E-01 </wgt>
<wgt id='1904'> +4.0104282E-01 </wgt>
<wgt id='1905'> +3.9757217E-01 </wgt>
<wgt id='1906'> +3.9191598E-01 </wgt>
<wgt id='1907'> +3.9703977E-01 </wgt>
<wgt id='1908'> +4.0040759E-01 </wgt>
<wgt id='1909'> +3.9428731E-01 </wgt>
<wgt id='1910'> +4.0122135E-01 </wgt>
<wgt id='1911'> +3.8164727E-01 </wgt>
<wgt id='1912'> +3.9836289E-01 </wgt>
<wgt id='1913'> +3.9696383E-01 </wgt>
<wgt id='1914'> +4.0612963E-01 </wgt>
<wgt id='1915'> +4.0442332E-01 </wgt>
<wgt id='1916'> +3.8513313E-01 </wgt>
<wgt id='1917'> +3.9811098E-01 </wgt>
<wgt id='1918'> +4.1874994E-01 </wgt>
<wgt id='1919'> +3.9758734E-01 </wgt>
<wgt id='1920'> +4.0391589E-01 </wgt>
<wgt id='1921'> +3.9430125E-01 </wgt>
<wgt id='1922'> +4.0327259E-01 </wgt>
<wgt id='1923'> +4.0585568E-01 </wgt>
<wgt id='1924'> +4.0808266E-01 </wgt>
<wgt id='1925'> +4.0116363E-01 </wgt>
<wgt id='1926'> +3.9856960E-01 </wgt>
<wgt id='1927'> +3.9460289E-01 </wgt>
<wgt id='1928'> +3.9592671E-01 </wgt>
<wgt id='1929'> +3.8944401E-01 </wgt>
<wgt id='1930'> +3.9171496E-01 </wgt>
<wgt id='1931'> +4.0157677E-01 </wgt>
<wgt id='1932'> +4.0186755E-01 </wgt>
<wgt id='1933'> +3.9220021E-01 </wgt>
<wgt id='1934'> +4.0281904E-01 </wgt>
<wgt id='1935'> +3.9386961E-01 </wgt>
<wgt id='1936'> +3.9141251E-01 </wgt>
<wgt id='1937'> +3.8962126E-01 </wgt>
<wgt id='1938'> +4.0138990E-01 </wgt>
<wgt id='1939'> +4.0434349E-01 </wgt>
<wgt id='1940'> +4.0101660E-01 </wgt>
<wgt id='1941'> +3.9123179E-01 </wgt>
<wgt id='1942'> +4.1621503E-01 </wgt>
<wgt id='1943'> +3.9905400E-01 </wgt>
<wgt id='1944'> +3.9811809E-01 </wgt>
<wgt id='1945'> +4.0082781E-01 </wgt>
<wgt id='1946'> +3.8653794E-01 </wgt>
<wgt id='1947'> +3.9998091E-01 </wgt>
<wgt id='1948'> +3.9804473E-01 </wgt>
<wgt id='1949'> +4.0079426E-01 </wgt>
<wgt id='1950'> +3.9624178E-01 </wgt>
<wgt id='1951'> +3.9739736E-01 </wgt>
<wgt id='1952'> +3.9762463E-01 </wgt>
<wgt id='1953'> +4.0011161E-01 </wgt>
<wgt id='1954'> +3.9654753E-01 </wgt>
<wgt id='1955'> +3.9787065E-01 </wgt>
<wgt id='1956'> +3.9083486E-01 </wgt>
<wgt id='1957'> +4.0064236E-01 </wgt>
<wgt id='1958'> +3.9919287E-01 </wgt>
<wgt id='1959'> +4.0043143E-01 </wgt>
<wgt id='1960'> +4.0703835E-01 </wgt>
<wgt id='1961'> +3.9494994E-01 </wgt>
<wgt id='1962'> +3.9855547E-01 </wgt>
<wgt id='1963'> +3.9691423E-01 </wgt>
<wgt id='1964'> +3.9281804E-01 </wgt>
<wgt id='1965'> +4.0047189E-01 </wgt>
<wgt id='1966'> +3.9209389E-01 </wgt>
<wgt id='1967'> +3.9527322E-01 </wgt>
<wgt id='1968'> +3.9908790E-01 </wgt>
<wgt id='1969'> +3.9839915E-01 </wgt>
<wgt id='1970'> +3.9929829E-01 </wgt>
<wgt id='1971'> +3.9314537E-01 </wgt>
<wgt id='1972'> +4.0581662E-01 </wgt>
<wgt id='1973'> +3.9755280E-01 </wgt>
<wgt id='1974'> +3.9539590E-01 </wgt>
<wgt id='1975'> +3.8861350E-01 </wgt>
<wgt id='1976'> +4.0344206E-01 </wgt>
<wgt id='1977'> +3.9841682E-01 </wgt>
<wgt id='1978'> +3.9378842E-01 </wgt>
<wgt id='1979'> +3.9684878E-01 </wgt>
<wgt id='1980'> +3.9891205E-01 </wgt>
<wgt id='1981'> +3.9563407E-01 </wgt>
<wgt id='1982'> +4.0629431E-01 </wgt>
<wgt id='1983'> +3.7963426E-01 </wgt>
<wgt id='1984'> +3.9936324E-01 </wgt>
<wgt id='1985'> +3.9249922E-01 </wgt>
<wgt id='1986'> +4.1553221E-01 </wgt>
<wgt id='1987'> +3.9305728E-01 </wgt>
<wgt id='1988'> +3.8863552E-01 </wgt>
<wgt id='1989'> +3.8796293E-01 </wgt>
<wgt id='1990'> +3.9921410E-01 </wgt>
<wgt id='1991'> +4.0185772E-01 </wgt>
<wgt id='1992'> +3.9408160E-01 </wgt>
<wgt id='1993'> +4.0528610E-01 </wgt>
<wgt id='1994'> +4.0004451E-01 </wgt>
<wgt id='1995'> +4.0061873E-01 </wgt>
<wgt id='1996'> +3.9554258E-01 </wgt>
<wgt id='1997'> +4.0230019E-01 </wgt>
<wgt id='1998'> +4.0271400E-01 </wgt>
<wgt id='1999'> +3.9259237E-01 </wgt>
<wgt id='2000'> +3.9994128E-01 </wgt>
<wgt id='2001'> +3.9949556E-01 </wgt>
<wgt id='2002'> +3.9527380E-01 </wgt>
<wgt id='2003'> +3.9745499E-01 </wgt>
<wgt id='2004'> +3.9048657E-01 </wgt>
<wgt id='2005'> +3.8961378E-01 </wgt>
<wgt id='2006'> +3.9486238E-01 </wgt>
<wgt id='2007'> +4.0104282E-01 </wgt>
<wgt id='2008'> +3.9757217E-01 </wgt>
<wgt id='2009'> +3.9191598E-01 </wgt>
<wgt id='2010'> +3.9703977E-01 </wgt>
<wgt id='2011'> +4.0040759E-01 </wgt>
<wgt id='2012'> +3.9428731E-01 </wgt>
<wgt id='2013'> +4.0122135E-01 </wgt>
<wgt id='2014'> +3.8164727E-01 </wgt>
<wgt id='2015'> +3.9836289E-01 </wgt>
<wgt id='2016'> +3.9696383E-01 </wgt>
<wgt id='2017'> +4.0612963E-01 </wgt>
<wgt id='2018'> +4.0442332E-01 </wgt>
<wgt id='2019'> +3.8513313E-01 </wgt>
<wgt id='2020'> +3.9624292E-01 </wgt>
<wgt id='2021'> +3.9854481E-01 </wgt>
<wgt id='2022'> +3.9799350E-01 </wgt>
</rwgt>
</event>
<event>
13      2 +3.9556008E-01 9.27004100e+01 7.81860800e-03 1.23030500e-01
       21 -1    0    0  502  503 +0.0000000000e+00 +0.0000000000e+00 +2.4100360203e+02 2.4100360203e+02 0.0000000000e+00 0.0000e+00 1.0000e+00
        1 -1    0    0  501    0 +0.0000000000e+00 +0.0000000000e+00 -8.2730511624e+02 8.2730511626e+02 5.0400000000e-03 0.0000e+00 -1.0000e+00
 -8000001  2    1    2    0  503 -3.1250450697e+01 +1.2063384094e+01 -3.7566934962e+02 7.0869650894e+02 6.0000097135e+02 0.0000e+00 0.0000e+00
        2  1    1    2  501    0 +2.1974326925e+01 -2.1898254897e+01 -2.8358178486e+02 2.8527361134e+02 2.5500000000e-03 0.0000e+00 -1.0000e+00
        5  1    1    2  502    0 +9.2761237726e+00 +9.8348708022e+00 +7.2949620276e+01 7.4338598017e+01 4.6700000000e+00 0.0000e+00 1.0000e+00
       -6  2    3    3    0  503 -2.7492595711e+02 +2.7355257695e+01 -1.3031348420e+02 3.5098588327e+02 1.7284933923e+02 0.0000e+00 0.0000e+00
       -5  1    6    6    0  503 -9.6375183015e+01 -4.1312140628e+01 +3.8526191872e-01 1.0496106989e+02 4.6700000000e+00 0.0000e+00 1.0000e+00
      -24  2    6    6    0    0 -1.7855077409e+02 +6.8667398323e+01 -1.3069874612e+02 2.4602481338e+02 8.2767481774e+01 0.0000e+00 0.0000e+00
        1  1    8    8  504    0 -1.2371403974e+02 +8.3691743442e+01 -7.8012540885e+01 1.6850943033e+02 5.0400000000e-03 0.0000e+00 -1.0000e+00
       -2  1    8    8    0  504 -5.4836734348e+01 -1.5024345119e+01 -5.2686205236e+01 7.7515383047e+01 2.5500000000e-03 0.0000e+00 1.0000e+00
       23  2    3    3    0    0 +2.4367550641e+02 -1.5291873600e+01 -2.4535586542e+02 3.5771062567e+02 9.0254070271e+01 0.0000e+00 0.0000e+00
       12  1   11   11    0    0 +1.2074849213e+02 -4.7169417936e+01 -1.5385094850e+02 2.0118465820e+02 0.0000000000e+00 0.0000e+00 -1.0000e+00
      -12  1   11   11    0    0 +1.2292701428e+02 +3.1877544336e+01 -9.1504916915e+01 1.5652596747e+02 0.0000000000e+00 0.0000e+00 1.0000e+00
<mgrwt>
<rscale>  1 0.53625039e+02</rscale>
<asrwt>0</asrwt>
<pdfrwt beam="1">  1       21 0.37077478e-01 0.92700405e+02</pdfrwt>
<pdfrwt beam="2">  1        1 0.12727771e+00 0.31020843e+02</pdfrwt>
<totfact> 0.22275499e+03</totfact>
</mgrwt>
<rwgt>
<wgt id='1001'> +3.9556008E-01 </wgt>
<wgt id='1002'> +2.2466870E-01 </wgt>
<wgt id='1003'> +2.2461341E-01 </wgt>
<wgt id='1004'> +2.5926401E-01 </wgt>
<wgt id='1005'> +2.0863994E-01 </wgt>
<wgt id='1006'> +3.5315434E-01 </wgt>
<wgt id='1007'> +2.0742045E-01 </wgt>
<wgt id='1008'> +2.0737188E-01 </wgt>
<wgt id='1009'> +2.3762390E-01 </wgt>
<wgt id='1010'> +1.9329129E-01 </wgt>
<wgt id='1011'> +4.5003767E-01 </wgt>
<wgt id='1012'> +2.4513248E-01 </wgt>
<wgt id='1013'> +2.4506866E-01 </wgt>
<wgt id='1014'> +2.8536971E-01 </wgt>
<wgt id='1015'> +2.2670487E-01 </wgt>
<wgt id='1016'> +3.7180349E-01 </wgt>
<wgt id='1017'> +2.1274796E-01 </wgt>
<wgt id='1018'> +2.1269614E-01 </wgt>
<wgt id='1019'> +2.4506866E-01 </wgt>
<wgt id='1020'> +1.9773410E-01 </wgt>
<wgt id='1021'> +3.3194456E-01 </wgt>
<wgt id='1022'> +1.9641490E-01 </wgt>
<wgt id='1023'> +1.9636940E-01 </wgt>
<wgt id='1024'> +2.2461341E-01 </wgt>
<wgt id='1025'> +1.8318774E-01 </wgt>
<wgt id='1026'> +4.2300925E-01 </wgt>
<wgt id='1027'> +2.3212595E-01 </wgt>
<wgt id='1028'> +2.3206612E-01 </wgt>
<wgt id='1029'> +2.6974501E-01 </wgt>
<wgt id='1030'> +2.1485476E-01 </wgt>
<wgt id='1031'> +4.2086129E-01 </wgt>
<wgt id='1032'> +2.3768329E-01 </wgt>
<wgt id='1033'> +2.3762390E-01 </wgt>
<wgt id='1034'> +2.7452178E-01 </wgt>
<wgt id='1035'> +2.2050279E-01 </wgt>
<wgt id='1036'> +3.7574316E-01 </wgt>
<wgt id='1037'> +2.1943589E-01 </wgt>
<wgt id='1038'> +2.1938368E-01 </wgt>
<wgt id='1039'> +2.5160815E-01 </wgt>
<wgt id='1040'> +2.0428145E-01 </wgt>
<wgt id='1041'> +4.7882342E-01 </wgt>
<wgt id='1042'> +2.5933248E-01 </wgt>
<wgt id='1043'> +2.5926401E-01 </wgt>
<wgt id='1044'> +3.0216381E-01 </wgt>
<wgt id='1045'> +2.3959484E-01 </wgt>
<wgt id='1046'> +3.9556008E-01 </wgt>
<wgt id='1047'> +3.9556008E-01 </wgt>
<wgt id='1048'> +3.9556008E-01 </wgt>
<wgt id='1049'> +3.9657297E-01 </wgt>
<wgt id='1050'> +3.9539097E-01 </wgt>
<wgt id='1051'> +3.9555784E-01 </wgt>
<wgt id='1052'> +3.9501088E-01 </wgt>
<wgt id='1053'> +3.9670175E-01 </wgt>
<wgt id='1054'> +3.9538563E-01 </wgt>
<wgt id='1055'> +3.9395058E-01 </wgt>
<wgt id='1056'> +3.9561669E-01 </wgt>
<wgt id='1057'> +3.9437783E-01 </wgt>
<wgt id='1058'> +3.9551947E-01 </wgt>
<wgt id='1059'> +3.9434033E-01 </wgt>
<wgt id='1060'> +3.9618078E-01 </wgt>
<wgt id='1061'> +3.9602090E-01 </wgt>
<wgt id='1062'> +3.9677458E-01 </wgt>
<wgt id='1063'> +3.9626938E-01 </wgt>
<wgt id='1064'> +3.9538849E-01 </wgt>
<wgt id='1065'> +3.9631242E-01 </wgt>
<wgt id='1066'> +3.9385375E-01 </wgt>
<wgt id='1067'> +3.9875559E-01 </wgt>
<wgt id='1068'> +3.9537086E-01 </wgt>
<wgt id='1069'> +3.9533635E-01 </wgt>
<wgt id='1070'> +3.9422280E-01 </wgt>
<wgt id='1071'> +3.9466288E-01 </wgt>
<wgt id='1072'> +3.9679657E-01 </wgt>
<wgt id='1073'> +3.9490862E-01 </wgt>
<wgt id='1074'> +3.9601588E-01 </wgt>
<wgt id='1075'> +3.9513795E-01 </wgt>
<wgt id='1076'> +3.9609770E-01 </wgt>
<wgt id='1077'> +3.9807852E-01 </wgt>
<wgt id='1078'> +3.9428794E-01 </wgt>
<wgt id='1079'> +3.9867167E-01 </wgt>
<wgt id='1080'> +3.9629763E-01 </wgt>
<wgt id='1081'> +3.9729841E-01 </wgt>
<wgt id='1082'> +3.9655622E-01 </wgt>
<wgt id='1083'> +3.9435444E-01 </wgt>
<wgt id='1084'> +3.9329920E-01 </wgt>
<wgt id='1085'> +3.9698774E-01 </wgt>
<wgt id='1086'> +3.9448121E-01 </wgt>
<wgt id='1087'> +3.9482046E-01 </wgt>
<wgt id='1088'> +3.9554602E-01 </wgt>
<wgt id='1089'> +3.9589291E-01 </wgt>
<wgt id='1090'> +3.9643079E-01 </wgt>
<wgt id='1091'> +3.9502108E-01 </wgt>
<wgt id='1092'> +3.9451586E-01 </wgt>
<wgt id='1093'> +3.9627253E-01 </wgt>
<wgt id='1094'> +3.9559704E-01 </wgt>
<wgt id='1095'> +3.9486374E-01 </wgt>
<wgt id='1096'> +3.9455706E-01 </wgt>
<wgt id='1097'> +3.9485307E-01 </wgt>
<wgt id='1098'> +3.9473956E-01 </wgt>
<wgt id='1099'> +3.9514368E-01 </wgt>
<wgt id='1100'> +3.9538389E-01 </wgt>
<wgt id='1101'> +3.9615349E-01 </wgt>
<wgt id='1102'> +3.9652478E-01 </wgt>
<wgt id='1103'> +3.9728919E-01 </wgt>
<wgt id='1104'> +3.9482068E-01 </wgt>
<wgt id='1105'> +3.9554990E-01 </wgt>
<wgt id='1106'> +3.9667184E-01 </wgt>
<wgt id='1107'> +3.9534540E-01 </wgt>
<wgt id='1108'> +3.9594815E-01 </wgt>
<wgt id='1109'> +3.9704843E-01 </wgt>
<wgt id='1110'> +3.9643578E-01 </wgt>
<wgt id='1111'> +3.9514761E-01 </wgt>
<wgt id='1112'> +3.9532289E-01 </wgt>
<wgt id='1113'> +3.9637700E-01 </wgt>
<wgt id='1114'> +3.9571416E-01 </wgt>
<wgt id='1115'> +3.9572128E-01 </wgt>
<wgt id='1116'> +3.9599069E-01 </wgt>
<wgt id='1117'> +3.9540125E-01 </wgt>
<wgt id='1118'> +3.9574694E-01 </wgt>
<wgt id='1119'> +3.9564112E-01 </wgt>
<wgt id='1120'> +3.9540127E-01 </wgt>
<wgt id='1121'> +3.9592431E-01 </wgt>
<wgt id='1122'> +3.9520141E-01 </wgt>
<wgt id='1123'> +3.9528108E-01 </wgt>
<wgt id='1124'> +3.9515101E-01 </wgt>
<wgt id='1125'> +3.9605547E-01 </wgt>
<wgt id='1126'> +3.9515891E-01 </wgt>
<wgt id='1127'> +3.9510948E-01 </wgt>
<wgt id='1128'> +3.9589862E-01 </wgt>
<wgt id='1129'> +3.9563922E-01 </wgt>
<wgt id='1130'> +3.9585919E-01 </wgt>
<wgt id='1131'> +3.9653037E-01 </wgt>
<wgt id='1132'> +3.9546408E-01 </wgt>
<wgt id='1133'> +3.9562345E-01 </wgt>
<wgt id='1134'> +3.9540798E-01 </wgt>
<wgt id='1135'> +3.9617393E-01 </wgt>
<wgt id='1136'> +3.9578105E-01 </wgt>
<wgt id='1137'> +3.9576294E-01 </wgt>
<wgt id='1138'> +3.9589687E-01 </wgt>
<wgt id='1139'> +3.9569758E-01 </wgt>
<wgt id='1140'> +3.9581479E-01 </wgt>
<wgt id='1141'> +3.9553791E-01 </wgt>
<wgt id='1142'> +3.9582067E-01 </wgt>
<wgt id='1143'> +3.9556643E-01 </wgt>
<wgt id='1144'> +3.9546417E-01 </wgt>
<wgt id='1145'> +3.9554259E-01 </wgt>
<wgt id='1146'> +3.9548924E-01 </wgt>
<wgt id='1147'> +3.9587356E-01 </wgt>
<wgt id='1148'> +3.9556008E-01 </wgt>
<wgt id='1149'> +3.9613390E-01 </wgt>
<wgt id='1150'> +3.9677223E-01 </wgt>
<wgt id='1151'> +4.0148666E-01 </wgt>
<wgt id='1152'> +4.0260290E-01 </wgt>
<wgt id='1153'> +3.9321292E-01 </wgt>
<wgt id='1154'> +3.9939417E-01 </wgt>
<wgt id='1155'> +4.0362127E-01 </wgt>
<wgt id='1156'> +3.9996394E-01 </wgt>
<wgt id='1157'> +3.9500386E-01 </wgt>
<wgt id='1158'> +4.1032901E-01 </wgt>
<wgt id='1159'> +3.7268726E-01 </wgt>
<wgt id='1160'> +3.9045833E-01 </wgt>
<wgt id='1161'> +3.9718617E-01 </wgt>
<wgt id='1162'> +3.8398517E-01 </wgt>
<wgt id='1163'> +3.9266241E-01 </wgt>
<wgt id='1164'> +4.0594759E-01 </wgt>
<wgt id='1165'> +3.9557254E-01 </wgt>
<wgt id='1166'> +3.9673538E-01 </wgt>
<wgt id='1167'> +4.0266665E-01 </wgt>
<wgt id='1168'> +3.9501508E-01 </wgt>
<wgt id='1169'> +3.9282198E-01 </wgt>
<wgt id='1170'> +4.0463186E-01 </wgt>
<wgt id='1171'> +4.0386007E-01 </wgt>
<wgt id='1172'> +3.9778395E-01 </wgt>
<wgt id='1173'> +3.8797376E-01 </wgt>
<wgt id='1174'> +4.0058031E-01 </wgt>
<wgt id='1175'> +3.9567250E-01 </wgt>
<wgt id='1176'> +3.7438922E-01 </wgt>
<wgt id='1177'> +4.0734618E-01 </wgt>
<wgt id='1178'> +3.8928118E-01 </wgt>
<wgt id='1179'> +4.0079588E-01 </wgt>
<wgt id='1180'> +4.0516793E-01 </wgt>
<wgt id='1181'> +4.0487453E-01 </wgt>
<wgt id='1182'> +4.0901954E-01 </wgt>
<wgt id='1183'> +3.9356922E-01 </wgt>
<wgt id='1184'> +3.9732323E-01 </wgt>
<wgt id='1185'> +4.0208141E-01 </wgt>
<wgt id='1186'> +3.9647334E-01 </wgt>
<wgt id='1187'> +3.9128365E-01 </wgt>
<wgt id='1188'> +3.9614156E-01 </wgt>
<wgt id='1189'> +3.9274628E-01 </wgt>
<wgt id='1190'> +3.9854348E-01 </wgt>
<wgt id='1191'> +4.0062096E-01 </wgt>
<wgt id='1192'> +3.9605168E-01 </wgt>
<wgt id='1193'> +3.9271414E-01 </wgt>
<wgt id='1194'> +3.8623268E-01 </wgt>
<wgt id='1195'> +3.9642362E-01 </wgt>
<wgt id='1196'> +4.0082340E-01 </wgt>
<wgt id='1197'> +3.8748853E-01 </wgt>
<wgt id='1198'> +4.0738494E-01 </wgt>
<wgt id='1199'> +3.9867099E-01 </wgt>
<wgt id='1200'> +3.9775978E-01 </wgt>
<wgt id='1201'> +4.0231447E-01 </wgt>
<wgt id='1202'> +3.9630800E-01 </wgt>
<wgt id='1203'> +4.0290272E-01 </wgt>
<wgt id='1204'> +3.8628689E-01 </wgt>
<wgt id='1205'> +3.9434433E-01 </wgt>
<wgt id='1206'> +4.0069172E-01 </wgt>
<wgt id='1207'> +4.0737651E-01 </wgt>
<wgt id='1208'> +3.9621334E-01 </wgt>
<wgt id='1209'> +4.0532637E-01 </wgt>
<wgt id='1210'> +3.9810259E-01 </wgt>
<wgt id='1211'> +4.0112494E-01 </wgt>
<wgt id='1212'> +3.8488780E-01 </wgt>
<wgt id='1213'> +3.9487942E-01 </wgt>
<wgt id='1214'> +3.9488246E-01 </wgt>
<wgt id='1215'> +3.8540709E-01 </wgt>
<wgt id='1216'> +3.8937479E-01 </wgt>
<wgt id='1217'> +4.0142582E-01 </wgt>
<wgt id='1218'> +3.9350853E-01 </wgt>
<wgt id='1219'> +3.9318006E-01 </wgt>
<wgt id='1220'> +4.1123536E-01 </wgt>
<wgt id='1221'> +3.8368347E-01 </wgt>
<wgt id='1222'> +3.9384637E-01 </wgt>
<wgt id='1223'> +3.8955875E-01 </wgt>
<wgt id='1224'> +3.9330871E-01 </wgt>
<wgt id='1225'> +3.9760159E-01 </wgt>
<wgt id='1226'> +3.9196887E-01 </wgt>
<wgt id='1227'> +4.1279284E-01 </wgt>
<wgt id='1228'> +4.0350105E-01 </wgt>
<wgt id='1229'> +3.8429274E-01 </wgt>
<wgt id='1230'> +3.9523269E-01 </wgt>
<wgt id='1231'> +3.9557254E-01 </wgt>
<wgt id='1232'> +3.6415529E-01 </wgt>
<wgt id='1233'> +3.9459315E-01 </wgt>
<wgt id='1234'> +4.1247753E-01 </wgt>
<wgt id='1235'> +3.9899642E-01 </wgt>
<wgt id='1236'> +4.0395008E-01 </wgt>
<wgt id='1237'> +3.9565004E-01 </wgt>
<wgt id='1238'> +3.5997567E-01 </wgt>
<wgt id='1239'> +4.0356013E-01 </wgt>
<wgt id='1240'> +4.0312721E-01 </wgt>
<wgt id='1241'> +3.9434087E-01 </wgt>
<wgt id='1242'> +3.9085981E-01 </wgt>
<wgt id='1243'> +3.9401933E-01 </wgt>
<wgt id='1244'> +3.9829512E-01 </wgt>
<wgt id='1245'> +4.0586900E-01 </wgt>
<wgt id='1246'> +3.8357514E-01 </wgt>
<wgt id='1247'> +3.9142181E-01 </wgt>
<wgt id='1248'> +3.9265409E-01 </wgt>
<wgt id='1249'> +4.0139332E-01 </wgt>
<wgt id='1250'> +3.8083754E-01 </wgt>
<wgt id='1251'> +3.7792659E-01 </wgt>
<wgt id='1252'> +3.8346653E-01 </wgt>
<wgt id='1253'> +3.8359355E-01 </wgt>
<wgt id='1254'> +3.3366759E-01 </wgt>
<wgt id='1255'> +3.8385541E-01 </wgt>
<wgt id='1256'> +3.8329060E-01 </wgt>
<wgt id='1257'> +3.8417927E-01 </wgt>
<wgt id='1258'> +3.8543514E-01 </wgt>
<wgt id='1259'> +3.8304753E-01 </wgt>
<wgt id='1260'> +3.8377049E-01 </wgt>
<wgt id='1261'> +3.8395265E-01 </wgt>
<wgt id='1262'> +3.8390483E-01 </wgt>
<wgt id='1263'> +3.8380129E-01 </wgt>
<wgt id='1264'> +3.8744471E-01 </wgt>
<wgt id='1265'> +3.8136605E-01 </wgt>
<wgt id='1266'> +3.8384066E-01 </wgt>
<wgt id='1267'> +3.8385834E-01 </wgt>
<wgt id='1268'> +3.8543778E-01 </wgt>
<wgt id='1269'> +3.8223576E-01 </wgt>
<wgt id='1270'> +3.8267598E-01 </wgt>
<wgt id='1271'> +3.8470801E-01 </wgt>
<wgt id='1272'> +3.8715008E-01 </wgt>
<wgt id='1273'> +3.8095553E-01 </wgt>
<wgt id='1274'> +3.8257878E-01 </wgt>
<wgt id='1275'> +3.8526414E-01 </wgt>
<wgt id='1276'> +3.8362576E-01 </wgt>
<wgt id='1277'> +3.8376673E-01 </wgt>
<wgt id='1278'> +3.8003539E-01 </wgt>
<wgt id='1279'> +3.8676709E-01 </wgt>
<wgt id='1280'> +3.8398451E-01 </wgt>
<wgt id='1281'> +3.8229824E-01 </wgt>
<wgt id='1282'> +3.8560594E-01 </wgt>
<wgt id='1283'> +3.8078202E-01 </wgt>
<wgt id='1284'> +3.8120050E-01 </wgt>
<wgt id='1285'> +3.8428931E-01 </wgt>
<wgt id='1286'> +3.8292709E-01 </wgt>
<wgt id='1287'> +3.8385948E-01 </wgt>
<wgt id='1288'> +3.8358466E-01 </wgt>
<wgt id='1289'> +3.8378896E-01 </wgt>
<wgt id='1290'> +3.8485926E-01 </wgt>
<wgt id='1291'> +3.8349683E-01 </wgt>
<wgt id='1292'> +3.8517517E-01 </wgt>
<wgt id='1293'> +3.8158590E-01 </wgt>
<wgt id='1294'> +3.8161826E-01 </wgt>
<wgt id='1295'> +3.8411100E-01 </wgt>
<wgt id='1296'> +3.8822014E-01 </wgt>
<wgt id='1297'> +3.8912758E-01 </wgt>
<wgt id='1298'> +3.8747915E-01 </wgt>
<wgt id='1299'> +3.8916525E-01 </wgt>
<wgt id='1300'> +3.8717447E-01 </wgt>
<wgt id='1301'> +3.8796163E-01 </wgt>
<wgt id='1302'> +3.8859925E-01 </wgt>
<wgt id='1303'> +3.9026244E-01 </wgt>
<wgt id='1304'> +3.8684939E-01 </wgt>
<wgt id='1305'> +3.8828911E-01 </wgt>
<wgt id='1306'> +3.8811851E-01 </wgt>
<wgt id='1307'> +3.8862384E-01 </wgt>
<wgt id='1308'> +3.8796566E-01 </wgt>
<wgt id='1309'> +3.8598930E-01 </wgt>
<wgt id='1310'> +3.9122734E-01 </wgt>
<wgt id='1311'> +3.8903966E-01 </wgt>
<wgt id='1312'> +3.8794154E-01 </wgt>
<wgt id='1313'> +3.8848866E-01 </wgt>
<wgt id='1314'> +3.8771336E-01 </wgt>
<wgt id='1315'> +3.8469527E-01 </wgt>
<wgt id='1316'> +3.9107500E-01 </wgt>
<wgt id='1317'> +3.8494692E-01 </wgt>
<wgt id='1318'> +3.9401722E-01 </wgt>
<wgt id='1319'> +3.8833882E-01 </wgt>
<wgt id='1320'> +3.8792408E-01 </wgt>
<wgt id='1321'> +3.8543617E-01 </wgt>
<wgt id='1322'> +3.8947301E-01 </wgt>
<wgt id='1323'> +3.8391148E-01 </wgt>
<wgt id='1324'> +3.8590643E-01 </wgt>
<wgt id='1325'> +3.8833674E-01 </wgt>
<wgt id='1326'> +3.8687902E-01 </wgt>
<wgt id='1327'> +3.8710948E-01 </wgt>
<wgt id='1328'> +3.8862509E-01 </wgt>
<wgt id='1329'> +3.8757703E-01 </wgt>
<wgt id='1330'> +3.8857696E-01 </wgt>
<wgt id='1331'> +3.8822095E-01 </wgt>
<wgt id='1332'> +3.8761211E-01 </wgt>
<wgt id='1333'> +3.9106339E-01 </wgt>
<wgt id='1334'> +3.8440169E-01 </wgt>
<wgt id='1335'> +3.9027793E-01 </wgt>
<wgt id='1336'> +3.8742849E-01 </wgt>
<wgt id='1337'> +3.8822014E-01 </wgt>
<wgt id='1338'> +3.8802045E-01 </wgt>
<wgt id='1339'> +3.8811929E-01 </wgt>
<wgt id='1340'> +3.8818769E-01 </wgt>
<wgt id='1341'> +3.8831571E-01 </wgt>
<wgt id='1342'> +3.8837071E-01 </wgt>
<wgt id='1343'> +3.8839246E-01 </wgt>
<wgt id='1344'> +3.8896266E-01 </wgt>
<wgt id='1345'> +3.8988452E-01 </wgt>
<wgt id='1346'> +3.8806523E-01 </wgt>
<wgt id='1347'> +3.8803241E-01 </wgt>
<wgt id='1348'> +3.8963390E-01 </wgt>
<wgt id='1349'> +3.9049133E-01 </wgt>
<wgt id='1350'> +3.8766502E-01 </wgt>
<wgt id='1351'> +3.8891597E-01 </wgt>
<wgt id='1352'> +3.8903684E-01 </wgt>
<wgt id='1353'> +3.8981109E-01 </wgt>
<wgt id='1354'> +3.8835541E-01 </wgt>
<wgt id='1355'> +3.9177351E-01 </wgt>
<wgt id='1356'> +3.8674224E-01 </wgt>
<wgt id='1357'> +3.9014252E-01 </wgt>
<wgt id='1358'> +3.8823868E-01 </wgt>
<wgt id='1359'> +3.8851490E-01 </wgt>
<wgt id='1360'> +3.9016053E-01 </wgt>
<wgt id='1361'> +3.9025415E-01 </wgt>
<wgt id='1362'> +3.8818296E-01 </wgt>
<wgt id='1363'> +3.9209245E-01 </wgt>
<wgt id='1364'> +3.8435502E-01 </wgt>
<wgt id='1365'> +3.8752959E-01 </wgt>
<wgt id='1366'> +3.8941679E-01 </wgt>
<wgt id='1367'> +3.8571055E-01 </wgt>
<wgt id='1368'> +3.9033595E-01 </wgt>
<wgt id='1369'> +3.8758724E-01 </wgt>
<wgt id='1370'> +3.8961917E-01 </wgt>
<wgt id='1371'> +3.8791077E-01 </wgt>
<wgt id='1372'> +3.8507023E-01 </wgt>
<wgt id='1373'> +3.9065325E-01 </wgt>
<wgt id='1374'> +3.8827733E-01 </wgt>
<wgt id='1375'> +3.8717833E-01 </wgt>
<wgt id='1376'> +3.8928658E-01 </wgt>
<wgt id='1377'> +3.8904276E-01 </wgt>
<wgt id='1378'> +3.8894066E-01 </wgt>
<wgt id='1379'> +3.8770002E-01 </wgt>
<wgt id='1380'> +3.8910349E-01 </wgt>
<wgt id='1381'> +3.8653726E-01 </wgt>
<wgt id='1382'> +3.8911025E-01 </wgt>
<wgt id='1383'> +3.8817446E-01 </wgt>
<wgt id='1384'> +3.9041657E-01 </wgt>
<wgt id='1385'> +3.8896266E-01 </wgt>
<wgt id='1386'> +3.8856609E-01 </wgt>
<wgt id='1387'> +3.8873379E-01 </wgt>
<wgt id='1388'> +3.8886780E-01 </wgt>
<wgt id='1389'> +3.8902350E-01 </wgt>
<wgt id='1390'> +3.8908376E-01 </wgt>
<wgt id='1391'> +3.8910480E-01 </wgt>
<wgt id='1392'> +4.0191122E-01 </wgt>
<wgt id='1393'> +4.0169796E-01 </wgt>
<wgt id='1394'> +4.0215804E-01 </wgt>
<wgt id='1395'> +4.0244033E-01 </wgt>
<wgt id='1396'> +4.0154226E-01 </wgt>
<wgt id='1397'> +4.0289651E-01 </wgt>
<wgt id='1398'> +4.0097512E-01 </wgt>
<wgt id='1399'> +4.0074417E-01 </wgt>
<wgt id='1400'> +4.0338965E-01 </wgt>
<wgt id='1401'> +4.0193198E-01 </wgt>
<wgt id='1402'> +4.0190965E-01 </wgt>
<wgt id='1403'> +4.0128416E-01 </wgt>
<wgt id='1404'> +4.0320355E-01 </wgt>
<wgt id='1405'> +4.0333653E-01 </wgt>
<wgt id='1406'> +3.9995265E-01 </wgt>
<wgt id='1407'> +4.0210701E-01 </wgt>
<wgt id='1408'> +4.0178161E-01 </wgt>
<wgt id='1409'> +4.0212399E-01 </wgt>
<wgt id='1410'> +4.0169830E-01 </wgt>
<wgt id='1411'> +4.0015790E-01 </wgt>
<wgt id='1412'> +4.0326732E-01 </wgt>
<wgt id='1413'> +4.0521844E-01 </wgt>
<wgt id='1414'> +3.9839583E-01 </wgt>
<wgt id='1415'> +4.0450389E-01 </wgt>
<wgt id='1416'> +3.9940298E-01 </wgt>
<wgt id='1417'> +4.0150293E-01 </wgt>
<wgt id='1418'> +4.0243131E-01 </wgt>
<wgt id='1419'> +4.0024493E-01 </wgt>
<wgt id='1420'> +4.0112720E-01 </wgt>
<wgt id='1421'> +4.0363805E-01 </wgt>
<wgt id='1422'> +3.9986813E-01 </wgt>
<wgt id='1423'> +4.0546961E-01 </wgt>
<wgt id='1424'> +3.9910708E-01 </wgt>
<wgt id='1425'> +4.0186991E-01 </wgt>
<wgt id='1426'> +4.0172502E-01 </wgt>
<wgt id='1427'> +4.0237687E-01 </wgt>
<wgt id='1428'> +4.0048660E-01 </wgt>
<wgt id='1429'> +4.0144019E-01 </wgt>
<wgt id='1430'> +4.0146765E-01 </wgt>
<wgt id='1431'> +4.0040160E-01 </wgt>
<wgt id='1432'> +4.0321544E-01 </wgt>
<wgt id='1433'> +3.9590367E-01 </wgt>
<wgt id='1434'> +4.0905925E-01 </wgt>
<wgt id='1435'> +4.0133921E-01 </wgt>
<wgt id='1436'> +4.0088653E-01 </wgt>
<wgt id='1437'> +4.0046939E-01 </wgt>
<wgt id='1438'> +4.0582927E-01 </wgt>
<wgt id='1439'> +4.0384585E-01 </wgt>
<wgt id='1440'> +3.9746291E-01 </wgt>
<wgt id='1441'> +4.0237872E-01 </wgt>
<wgt id='1442'> +4.0066457E-01 </wgt>
<wgt id='1443'> +3.9909560E-01 </wgt>
<wgt id='1444'> +3.9887683E-01 </wgt>
<wgt id='1445'> +3.9932806E-01 </wgt>
<wgt id='1446'> +3.9964724E-01 </wgt>
<wgt id='1447'> +3.9874394E-01 </wgt>
<wgt id='1448'> +4.0009618E-01 </wgt>
<wgt id='1449'> +3.9817795E-01 </wgt>
<wgt id='1450'> +3.9784896E-01 </wgt>
<wgt id='1451'> +4.0049275E-01 </wgt>
<wgt id='1452'> +3.9920779E-01 </wgt>
<wgt id='1453'> +3.9899638E-01 </wgt>
<wgt id='1454'> +3.9857721E-01 </wgt>
<wgt id='1455'> +4.0023009E-01 </wgt>
<wgt id='1456'> +4.0081828E-01 </wgt>
<wgt id='1457'> +3.9603256E-01 </wgt>
<wgt id='1458'> +3.9896885E-01 </wgt>
<wgt id='1459'> +3.9917811E-01 </wgt>
<wgt id='1460'> +3.9886365E-01 </wgt>
<wgt id='1461'> +3.9937393E-01 </wgt>
<wgt id='1462'> +3.9747636E-01 </wgt>
<wgt id='1463'> +4.0049928E-01 </wgt>
<wgt id='1464'> +4.0188844E-01 </wgt>
<wgt id='1465'> +3.9538808E-01 </wgt>
<wgt id='1466'> +4.0235268E-01 </wgt>
<wgt id='1467'> +3.9699130E-01 </wgt>
<wgt id='1468'> +3.9858279E-01 </wgt>
<wgt id='1469'> +3.9966947E-01 </wgt>
<wgt id='1470'> +3.9752331E-01 </wgt>
<wgt id='1471'> +3.9852469E-01 </wgt>
<wgt id='1472'> +4.0028685E-01 </wgt>
<wgt id='1473'> +3.9757959E-01 </wgt>
<wgt id='1474'> +4.0175186E-01 </wgt>
<wgt id='1475'> +3.9588781E-01 </wgt>
<wgt id='1476'> +3.9854368E-01 </wgt>
<wgt id='1477'> +3.9937022E-01 </wgt>
<wgt id='1478'> +3.9961035E-01 </wgt>
<wgt id='1479'> +3.9757427E-01 </wgt>
<wgt id='1480'> +3.9921114E-01 </wgt>
<wgt id='1481'> +3.9878652E-01 </wgt>
<wgt id='1482'> +3.9756528E-01 </wgt>
<wgt id='1483'> +4.0062466E-01 </wgt>
<wgt id='1484'> +3.9306191E-01 </wgt>
<wgt id='1485'> +4.0591260E-01 </wgt>
<wgt id='1486'> +3.9999097E-01 </wgt>
<wgt id='1487'> +3.9760969E-01 </wgt>
<wgt id='1488'> +3.9741115E-01 </wgt>
<wgt id='1489'> +4.0336525E-01 </wgt>
<wgt id='1490'> +4.0107168E-01 </wgt>
<wgt id='1491'> +3.9428365E-01 </wgt>
<wgt id='1492'> +3.9976620E-01 </wgt>
<wgt id='1493'> +3.9740020E-01 </wgt>
<wgt id='1494'> +3.8594340E-01 </wgt>
<wgt id='1495'> +3.8190756E-01 </wgt>
<wgt id='1496'> +3.8357787E-01 </wgt>
<wgt id='1497'> +3.8481874E-01 </wgt>
<wgt id='1498'> +3.8721700E-01 </wgt>
<wgt id='1499'> +3.8599824E-01 </wgt>
<wgt id='1500'> +3.8456543E-01 </wgt>
<wgt id='1501'> +3.8500208E-01 </wgt>
<wgt id='1502'> +3.8538754E-01 </wgt>
<wgt id='1503'> +3.8562554E-01 </wgt>
<wgt id='1504'> +3.8587164E-01 </wgt>
<wgt id='1505'> +3.8626459E-01 </wgt>
<wgt id='1506'> +3.8639145E-01 </wgt>
<wgt id='1507'> +3.8651588E-01 </wgt>
<wgt id='1508'> +3.8599824E-01 </wgt>
<wgt id='1509'> +3.8612206E-01 </wgt>
<wgt id='1510'> +3.8605627E-01 </wgt>
<wgt id='1511'> +3.8595608E-01 </wgt>
<wgt id='1512'> +3.8597201E-01 </wgt>
<wgt id='1513'> +3.9058325E-01 </wgt>
<wgt id='1514'> +3.9022308E-01 </wgt>
<wgt id='1515'> +3.9106283E-01 </wgt>
<wgt id='1516'> +3.9093840E-01 </wgt>
<wgt id='1517'> +3.9024442E-01 </wgt>
<wgt id='1518'> +3.9170338E-01 </wgt>
<wgt id='1519'> +3.9014430E-01 </wgt>
<wgt id='1520'> +3.8987797E-01 </wgt>
<wgt id='1521'> +3.9130417E-01 </wgt>
<wgt id='1522'> +3.9102823E-01 </wgt>
<wgt id='1523'> +3.9016888E-01 </wgt>
<wgt id='1524'> +3.9142000E-01 </wgt>
<wgt id='1525'> +3.9022452E-01 </wgt>
<wgt id='1526'> +3.9139792E-01 </wgt>
<wgt id='1527'> +3.8959611E-01 </wgt>
<wgt id='1528'> +3.9224564E-01 </wgt>
<wgt id='1529'> +3.8878296E-01 </wgt>
<wgt id='1530'> +3.9180853E-01 </wgt>
<wgt id='1531'> +3.8988685E-01 </wgt>
<wgt id='1532'> +3.9074912E-01 </wgt>
<wgt id='1533'> +3.9036584E-01 </wgt>
<wgt id='1534'> +3.8617422E-01 </wgt>
<wgt id='1535'> +3.9363063E-01 </wgt>
<wgt id='1536'> +3.8923298E-01 </wgt>
<wgt id='1537'> +3.9183664E-01 </wgt>
<wgt id='1538'> +3.8999217E-01 </wgt>
<wgt id='1539'> +3.9208695E-01 </wgt>
<wgt id='1540'> +3.8983839E-01 </wgt>
<wgt id='1541'> +3.8921134E-01 </wgt>
<wgt id='1542'> +3.8930733E-01 </wgt>
<wgt id='1543'> +3.9421564E-01 </wgt>
<wgt id='1544'> +3.9174840E-01 </wgt>
<wgt id='1545'> +3.8777854E-01 </wgt>
<wgt id='1546'> +3.9049210E-01 </wgt>
<wgt id='1547'> +3.9011278E-01 </wgt>
<wgt id='1548'> +3.8952812E-01 </wgt>
<wgt id='1549'> +3.9060351E-01 </wgt>
<wgt id='1550'> +3.9009253E-01 </wgt>
<wgt id='1551'> +3.8795374E-01 </wgt>
<wgt id='1552'> +3.8880911E-01 </wgt>
<wgt id='1553'> +3.9169285E-01 </wgt>
<wgt id='1554'> +3.9409282E-01 </wgt>
<wgt id='1555'> +3.8413948E-01 </wgt>
<wgt id='1556'> +3.9056936E-01 </wgt>
<wgt id='1557'> +3.8838878E-01 </wgt>
<wgt id='1558'> +3.8666199E-01 </wgt>
<wgt id='1559'> +3.9329863E-01 </wgt>
<wgt id='1560'> +3.9411173E-01 </wgt>
<wgt id='1561'> +3.8897381E-01 </wgt>
<wgt id='1562'> +3.8872476E-01 </wgt>
<wgt id='1563'> +3.9134349E-01 </wgt>
<wgt id='1564'> +3.9058325E-01 </wgt>
<wgt id='1565'> +3.8956190E-01 </wgt>
<wgt id='1566'> +3.9114262E-01 </wgt>
<wgt id='1567'> +3.9013808E-01 </wgt>
<wgt id='1568'> +3.8910366E-01 </wgt>
<wgt id='1569'> +3.8955757E-01 </wgt>
<wgt id='1570'> +3.8972620E-01 </wgt>
<wgt id='1571'> +3.8974117E-01 </wgt>
<wgt id='1572'> +3.9008055E-01 </wgt>
<wgt id='1573'> +3.9015912E-01 </wgt>
<wgt id='1574'> +3.8980435E-01 </wgt>
<wgt id='1575'> +3.8980432E-01 </wgt>
<wgt id='1576'> +3.9013808E-01 </wgt>
<wgt id='1577'> +3.9019194E-01 </wgt>
<wgt id='1578'> +3.9016053E-01 </wgt>
<wgt id='1579'> +3.9015637E-01 </wgt>
<wgt id='1580'> +3.9015268E-01 </wgt>
<wgt id='1581'> +3.8613313E-01 </wgt>
<wgt id='1582'> +3.8616278E-01 </wgt>
<wgt id='1583'> +3.9133966E-01 </wgt>
<wgt id='1584'> +3.8365515E-01 </wgt>
<wgt id='1585'> +3.8735620E-01 </wgt>
<wgt id='1586'> +3.8202534E-01 </wgt>
<wgt id='1587'> +3.8345256E-01 </wgt>
<wgt id='1588'> +3.8810083E-01 </wgt>
<wgt id='1589'> +3.8584122E-01 </wgt>
<wgt id='1590'> +3.8501898E-01 </wgt>
<wgt id='1591'> +3.8524287E-01 </wgt>
<wgt id='1592'> +3.8740210E-01 </wgt>
<wgt id='1593'> +3.8611438E-01 </wgt>
<wgt id='1594'> +3.8702421E-01 </wgt>
<wgt id='1595'> +3.8572396E-01 </wgt>
<wgt id='1596'> +3.8761562E-01 </wgt>
<wgt id='1597'> +3.8524181E-01 </wgt>
<wgt id='1598'> +3.8784556E-01 </wgt>
<wgt id='1599'> +3.9025712E-01 </wgt>
<wgt id='1600'> +3.8718176E-01 </wgt>
<wgt id='1601'> +3.8600649E-01 </wgt>
<wgt id='1602'> +3.8674473E-01 </wgt>
<wgt id='1603'> +3.8617155E-01 </wgt>
<wgt id='1604'> +3.8688932E-01 </wgt>
<wgt id='1605'> +3.8553341E-01 </wgt>
<wgt id='1606'> +3.8606312E-01 </wgt>
<wgt id='1607'> +3.8698588E-01 </wgt>
<wgt id='1608'> +3.9004138E-01 </wgt>
<wgt id='1609'> +3.8646790E-01 </wgt>
<wgt id='1610'> +3.8536823E-01 </wgt>
<wgt id='1611'> +3.8835759E-01 </wgt>
<wgt id='1612'> +3.9233185E-01 </wgt>
<wgt id='1613'> +3.9190250E-01 </wgt>
<wgt id='1614'> +3.9257210E-01 </wgt>
<wgt id='1615'> +3.9292562E-01 </wgt>
<wgt id='1616'> +3.9227277E-01 </wgt>
<wgt id='1617'> +3.9178887E-01 </wgt>
<wgt id='1618'> +3.9233931E-01 </wgt>
<wgt id='1619'> +3.9075465E-01 </wgt>
<wgt id='1620'> +3.9097771E-01 </wgt>
<wgt id='1621'> +3.9239983E-01 </wgt>
<wgt id='1622'> +3.9280432E-01 </wgt>
<wgt id='1623'> +3.9085415E-01 </wgt>
<wgt id='1624'> +3.9170745E-01 </wgt>
<wgt id='1625'> +3.9219495E-01 </wgt>
<wgt id='1626'> +3.9313320E-01 </wgt>
<wgt id='1627'> +3.9348119E-01 </wgt>
<wgt id='1628'> +3.9274940E-01 </wgt>
<wgt id='1629'> +3.9221970E-01 </wgt>
<wgt id='1630'> +3.9298031E-01 </wgt>
<wgt id='1631'> +3.9146991E-01 </wgt>
<wgt id='1632'> +3.9292930E-01 </wgt>
<wgt id='1633'> +3.9156445E-01 </wgt>
<wgt id='1634'> +3.9389499E-01 </wgt>
<wgt id='1635'> +3.9167008E-01 </wgt>
<wgt id='1636'> +3.9446235E-01 </wgt>
<wgt id='1637'> +3.9373462E-01 </wgt>
<wgt id='1638'> +3.9279783E-01 </wgt>
<wgt id='1639'> +3.9401823E-01 </wgt>
<wgt id='1640'> +3.9299760E-01 </wgt>
<wgt id='1641'> +3.8704297E-01 </wgt>
<wgt id='1642'> +3.9056487E-01 </wgt>
<wgt id='1643'> +3.9197024E-01 </wgt>
<wgt id='1644'> +3.9083968E-01 </wgt>
<wgt id='1645'> +3.9172060E-01 </wgt>
<wgt id='1646'> +3.9247417E-01 </wgt>
<wgt id='1647'> +3.9273193E-01 </wgt>
<wgt id='1648'> +3.9255526E-01 </wgt>
<wgt id='1649'> +3.9332542E-01 </wgt>
<wgt id='1650'> +3.9228102E-01 </wgt>
<wgt id='1651'> +3.9272393E-01 </wgt>
<wgt id='1652'> +3.9244411E-01 </wgt>
<wgt id='1653'> +3.9217815E-01 </wgt>
<wgt id='1654'> +3.9184297E-01 </wgt>
<wgt id='1655'> +3.9250794E-01 </wgt>
<wgt id='1656'> +3.9357743E-01 </wgt>
<wgt id='1657'> +3.9130756E-01 </wgt>
<wgt id='1658'> +3.9261993E-01 </wgt>
<wgt id='1659'> +3.9362449E-01 </wgt>
<wgt id='1660'> +3.9142395E-01 </wgt>
<wgt id='1661'> +3.9379443E-01 </wgt>
<wgt id='1662'> +3.9358954E-01 </wgt>
<wgt id='1663'> +3.9380984E-01 </wgt>
<wgt id='1664'> +3.9163279E-01 </wgt>
<wgt id='1665'> +3.9197878E-01 </wgt>
<wgt id='1666'> +3.9273496E-01 </wgt>
<wgt id='1667'> +3.9161007E-01 </wgt>
<wgt id='1668'> +3.9248194E-01 </wgt>
<wgt id='1669'> +3.9162278E-01 </wgt>
<wgt id='1670'> +3.9246535E-01 </wgt>
<wgt id='1671'> +3.9210373E-01 </wgt>
<wgt id='1672'> +3.9202703E-01 </wgt>
<wgt id='1673'> +3.9224841E-01 </wgt>
<wgt id='1674'> +3.9190659E-01 </wgt>
<wgt id='1675'> +3.9277161E-01 </wgt>
<wgt id='1676'> +3.9231447E-01 </wgt>
<wgt id='1677'> +3.9206434E-01 </wgt>
<wgt id='1678'> +3.9287052E-01 </wgt>
<wgt id='1679'> +3.9237218E-01 </wgt>
<wgt id='1680'> +3.9260903E-01 </wgt>
<wgt id='1681'> +3.9221214E-01 </wgt>
<wgt id='1682'> +3.9199668E-01 </wgt>
<wgt id='1683'> +3.9154860E-01 </wgt>
<wgt id='1684'> +3.9284464E-01 </wgt>
<wgt id='1685'> +3.9218305E-01 </wgt>
<wgt id='1686'> +3.9265208E-01 </wgt>
<wgt id='1687'> +3.9236019E-01 </wgt>
<wgt id='1688'> +3.9236687E-01 </wgt>
<wgt id='1689'> +3.9252744E-01 </wgt>
<wgt id='1690'> +3.9248170E-01 </wgt>
<wgt id='1691'> +3.9344231E-01 </wgt>
<wgt id='1692'> +3.9212702E-01 </wgt>
<wgt id='1693'> +3.9207948E-01 </wgt>
<wgt id='1694'> +3.9201012E-01 </wgt>
<wgt id='1695'> +3.9242471E-01 </wgt>
<wgt id='1696'> +3.9188334E-01 </wgt>
<wgt id='1697'> +3.9251097E-01 </wgt>
<wgt id='1698'> +3.9249995E-01 </wgt>
<wgt id='1699'> +3.9197731E-01 </wgt>
<wgt id='1700'> +3.9246780E-01 </wgt>
<wgt id='1701'> +3.9232041E-01 </wgt>
<wgt id='1702'> +3.9205972E-01 </wgt>
<wgt id='1703'> +3.9302844E-01 </wgt>
<wgt id='1704'> +3.9261844E-01 </wgt>
<wgt id='1705'> +3.9221195E-01 </wgt>
<wgt id='1706'> +3.9224496E-01 </wgt>
<wgt id='1707'> +3.9202892E-01 </wgt>
<wgt id='1708'> +3.9207249E-01 </wgt>
<wgt id='1709'> +3.9270926E-01 </wgt>
<wgt id='1710'> +3.9213728E-01 </wgt>
<wgt id='1711'> +3.9216756E-01 </wgt>
<wgt id='1712'> +3.9298737E-01 </wgt>
<wgt id='1713'> +3.8591694E-01 </wgt>
<wgt id='1714'> +3.9767641E-01 </wgt>
<wgt id='1715'> +4.0126568E-01 </wgt>
<wgt id='1716'> +4.0113413E-01 </wgt>
<wgt id='1717'> +4.0994984E-01 </wgt>
<wgt id='1718'> +3.9089183E-01 </wgt>
<wgt id='1719'> +3.9417313E-01 </wgt>
<wgt id='1720'> +4.1069430E-01 </wgt>
<wgt id='1721'> +3.8746075E-01 </wgt>
<wgt id='1722'> +4.0310327E-01 </wgt>
<wgt id='1723'> +4.1032243E-01 </wgt>
<wgt id='1724'> +4.0836612E-01 </wgt>
<wgt id='1725'> +4.0630984E-01 </wgt>
<wgt id='1726'> +4.0460214E-01 </wgt>
<wgt id='1727'> +4.0432558E-01 </wgt>
<wgt id='1728'> +4.0453392E-01 </wgt>
<wgt id='1729'> +4.0036333E-01 </wgt>
<wgt id='1730'> +3.9489446E-01 </wgt>
<wgt id='1731'> +3.7119943E-01 </wgt>
<wgt id='1732'> +4.1239329E-01 </wgt>
<wgt id='1733'> +4.0750557E-01 </wgt>
<wgt id='1734'> +4.0976797E-01 </wgt>
<wgt id='1735'> +3.7960732E-01 </wgt>
<wgt id='1736'> +4.0870529E-01 </wgt>
<wgt id='1737'> +3.9682843E-01 </wgt>
<wgt id='1738'> +4.0758758E-01 </wgt>
<wgt id='1739'> +4.0299098E-01 </wgt>
<wgt id='1740'> +3.9664114E-01 </wgt>
<wgt id='1741'> +3.9682309E-01 </wgt>
<wgt id='1742'> +4.1795961E-01 </wgt>
<wgt id='1743'> +3.8458240E-01 </wgt>
<wgt id='1744'> +4.0694636E-01 </wgt>
<wgt id='1745'> +3.8367484E-01 </wgt>
<wgt id='1746'> +3.9564634E-01 </wgt>
<wgt id='1747'> +4.0510846E-01 </wgt>
<wgt id='1748'> +3.9622397E-01 </wgt>
<wgt id='1749'> +4.1373248E-01 </wgt>
<wgt id='1750'> +4.0029251E-01 </wgt>
<wgt id='1751'> +4.0563612E-01 </wgt>
<wgt id='1752'> +3.9374446E-01 </wgt>
<wgt id='1753'> +4.0469877E-01 </wgt>
<wgt id='1754'> +4.0948792E-01 </wgt>
<wgt id='1755'> +4.0502384E-01 </wgt>
<wgt id='1756'> +4.0326597E-01 </wgt>
<wgt id='1757'> +4.0956413E-01 </wgt>
<wgt id='1758'> +3.9819656E-01 </wgt>
<wgt id='1759'> +3.9182493E-01 </wgt>
<wgt id='1760'> +3.9959911E-01 </wgt>
<wgt id='1761'> +4.0267744E-01 </wgt>
<wgt id='1762'> +4.0432558E-01 </wgt>
<wgt id='1763'> +3.9668625E-01 </wgt>
<wgt id='1764'> +4.0818939E-01 </wgt>
<wgt id='1765'> +3.9928647E-01 </wgt>
<wgt id='1766'> +4.1336265E-01 </wgt>
<wgt id='1767'> +4.0316512E-01 </wgt>
<wgt id='1768'> +3.7757250E-01 </wgt>
<wgt id='1769'> +4.0159864E-01 </wgt>
<wgt id='1770'> +4.2359841E-01 </wgt>
<wgt id='1771'> +4.0806024E-01 </wgt>
<wgt id='1772'> +4.0712730E-01 </wgt>
<wgt id='1773'> +4.0265517E-01 </wgt>
<wgt id='1774'> +3.8264772E-01 </wgt>
<wgt id='1775'> +3.9572868E-01 </wgt>
<wgt id='1776'> +4.1269420E-01 </wgt>
<wgt id='1777'> +4.1355884E-01 </wgt>
<wgt id='1778'> +3.9428037E-01 </wgt>
<wgt id='1779'> +4.0012195E-01 </wgt>
<wgt id='1780'> +3.9627722E-01 </wgt>
<wgt id='1781'> +4.0493625E-01 </wgt>
<wgt id='1782'> +4.2302178E-01 </wgt>
<wgt id='1783'> +3.9803580E-01 </wgt>
<wgt id='1784'> +4.0257343E-01 </wgt>
<wgt id='1785'> +4.0269363E-01 </wgt>
<wgt id='1786'> +4.1443638E-01 </wgt>
<wgt id='1787'> +3.9488094E-01 </wgt>
<wgt id='1788'> +4.0425384E-01 </wgt>
<wgt id='1789'> +3.9935016E-01 </wgt>
<wgt id='1790'> +3.9849149E-01 </wgt>
<wgt id='1791'> +3.7092680E-01 </wgt>
<wgt id='1792'> +3.9907826E-01 </wgt>
<wgt id='1793'> +4.1073262E-01 </wgt>
<wgt id='1794'> +3.9929576E-01 </wgt>
<wgt id='1795'> +3.8162047E-01 </wgt>
<wgt id='1796'> +3.9988045E-01 </wgt>
<wgt id='1797'> +3.9229854E-01 </wgt>
<wgt id='1798'> +3.9904862E-01 </wgt>
<wgt id='1799'> +4.0840898E-01 </wgt>
<wgt id='1800'> +4.1354136E-01 </wgt>
<wgt id='1801'> +3.9074360E-01 </wgt>
<wgt id='1802'> +4.0768665E-01 </wgt>
<wgt id='1803'> +4.0149341E-01 </wgt>
<wgt id='1804'> +4.0904361E-01 </wgt>
<wgt id='1805'> +4.0906477E-01 </wgt>
<wgt id='1806'> +3.9174756E-01 </wgt>
<wgt id='1807'> +3.9249224E-01 </wgt>
<wgt id='1808'> +3.9292811E-01 </wgt>
<wgt id='1809'> +4.0403914E-01 </wgt>
<wgt id='1810'> +3.9424792E-01 </wgt>
<wgt id='1811'> +4.0821205E-01 </wgt>
<wgt id='1812'> +3.9840485E-01 </wgt>
<wgt id='1813'> +4.0929640E-01 </wgt>
<wgt id='1814'> +3.9929894E-01 </wgt>
<wgt id='1815'> +4.1092154E-01 </wgt>
<wgt id='1816'> +3.9355593E-01 </wgt>
<wgt id='1817'> +4.0047272E-01 </wgt>
<wgt id='1818'> +3.9471404E-01 </wgt>
<wgt id='1819'> +3.9002684E-01 </wgt>
<wgt id='1820'> +4.0480578E-01 </wgt>
<wgt id='1821'> +3.8843800E-01 </wgt>
<wgt id='1822'> +3.9621307E-01 </wgt>
<wgt id='1823'> +3.9757477E-01 </wgt>
<wgt id='1824'> +4.0860034E-01 </wgt>
<wgt id='1825'> +3.9324677E-01 </wgt>
<wgt id='1826'> +3.9326878E-01 </wgt>
<wgt id='1827'> +3.8500026E-01 </wgt>
<wgt id='1828'> +3.9194207E-01 </wgt>
<wgt id='1829'> +3.8387569E-01 </wgt>
<wgt id='1830'> +3.7909368E-01 </wgt>
<wgt id='1831'> +3.9692898E-01 </wgt>
<wgt id='1832'> +3.9816258E-01 </wgt>
<wgt id='1833'> +3.7849569E-01 </wgt>
<wgt id='1834'> +3.6685324E-01 </wgt>
<wgt id='1835'> +4.0009244E-01 </wgt>
<wgt id='1836'> +4.1744334E-01 </wgt>
<wgt id='1837'> +4.0373337E-01 </wgt>
<wgt id='1838'> +4.0313641E-01 </wgt>
<wgt id='1839'> +4.1053631E-01 </wgt>
<wgt id='1840'> +3.8599215E-01 </wgt>
<wgt id='1841'> +3.8820536E-01 </wgt>
<wgt id='1842'> +3.8863203E-01 </wgt>
<wgt id='1843'> +3.7715754E-01 </wgt>
<wgt id='1844'> +3.8297378E-01 </wgt>
<wgt id='1845'> +3.9514890E-01 </wgt>
<wgt id='1846'> +3.9981970E-01 </wgt>
<wgt id='1847'> +3.9675474E-01 </wgt>
<wgt id='1848'> +3.9570303E-01 </wgt>
<wgt id='1849'> +4.0286819E-01 </wgt>
<wgt id='1850'> +3.9320301E-01 </wgt>
<wgt id='1851'> +3.9419026E-01 </wgt>
<wgt id='1852'> +3.9544963E-01 </wgt>
<wgt id='1853'> +3.8468246E-01 </wgt>
<wgt id='1854'> +4.0216273E-01 </wgt>
<wgt id='1855'> +3.9212900E-01 </wgt>
<wgt id='1856'> +3.9672490E-01 </wgt>
<wgt id='1857'> +4.0603762E-01 </wgt>
<wgt id='1858'> +3.9695317E-01 </wgt>
<wgt id='1859'> +3.9575820E-01 </wgt>
<wgt id='1860'> +3.9401446E-01 </wgt>
<wgt id='1861'> +3.9343883E-01 </wgt>
<wgt id='1862'> +3.9291192E-01 </wgt>
<wgt id='1863'> +3.9872396E-01 </wgt>
<wgt id='1864'> +3.9066861E-01 </wgt>
<wgt id='1865'> +3.9351904E-01 </wgt>
<wgt id='1866'> +3.9414109E-01 </wgt>
<wgt id='1867'> +3.9610028E-01 </wgt>
<wgt id='1868'> +3.9008422E-01 </wgt>
<wgt id='1869'> +3.9247955E-01 </wgt>
<wgt id='1870'> +3.9678989E-01 </wgt>
<wgt id='1871'> +3.8809270E-01 </wgt>
<wgt id='1872'> +3.7387415E-01 </wgt>
<wgt id='1873'> +3.8787861E-01 </wgt>
<wgt id='1874'> +3.8827425E-01 </wgt>
<wgt id='1875'> +3.9080320E-01 </wgt>
<wgt id='1876'> +4.0214149E-01 </wgt>
<wgt id='1877'> +3.7974788E-01 </wgt>
<wgt id='1878'> +3.9129108E-01 </wgt>
<wgt id='1879'> +3.7973142E-01 </wgt>
<wgt id='1880'> +3.6180436E-01 </wgt>
<wgt id='1881'> +3.9836403E-01 </wgt>
<wgt id='1882'> +3.8376239E-01 </wgt>
<wgt id='1883'> +4.4666465E-01 </wgt>
<wgt id='1884'> +3.8228658E-01 </wgt>
<wgt id='1885'> +3.8774202E-01 </wgt>
<wgt id='1886'> +3.9305954E-01 </wgt>
<wgt id='1887'> +3.9801196E-01 </wgt>
<wgt id='1888'> +3.9657848E-01 </wgt>
<wgt id='1889'> +3.9742687E-01 </wgt>
<wgt id='1890'> +3.9552881E-01 </wgt>
<wgt id='1891'> +3.9141599E-01 </wgt>
<wgt id='1892'> +4.0677618E-01 </wgt>
<wgt id='1893'> +3.8674120E-01 </wgt>
<wgt id='1894'> +4.0505205E-01 </wgt>
<wgt id='1895'> +3.9599009E-01 </wgt>
<wgt id='1896'> +3.9554794E-01 </wgt>
<wgt id='1897'> +3.9895581E-01 </wgt>
<wgt id='1898'> +3.9614454E-01 </wgt>
<wgt id='1899'> +4.0965207E-01 </wgt>
<wgt id='1900'> +3.9308520E-01 </wgt>
<wgt id='1901'> +3.8722101E-01 </wgt>
<wgt id='1902'> +3.8868801E-01 </wgt>
<wgt id='1903'> +3.9553210E-01 </wgt>
<wgt id='1904'> +3.8941434E-01 </wgt>
<wgt id='1905'> +3.9112289E-01 </wgt>
<wgt id='1906'> +3.8856778E-01 </wgt>
<wgt id='1907'> +4.0244597E-01 </wgt>
<wgt id='1908'> +4.0621948E-01 </wgt>
<wgt id='1909'> +3.8919845E-01 </wgt>
<wgt id='1910'> +4.0409992E-01 </wgt>
<wgt id='1911'> +3.7035986E-01 </wgt>
<wgt id='1912'> +4.0021913E-01 </wgt>
<wgt id='1913'> +3.8265350E-01 </wgt>
<wgt id='1914'> +3.9517636E-01 </wgt>
<wgt id='1915'> +3.9527778E-01 </wgt>
<wgt id='1916'> +3.7989009E-01 </wgt>
<wgt id='1917'> +3.7846928E-01 </wgt>
<wgt id='1918'> +4.0805644E-01 </wgt>
<wgt id='1919'> +3.9355593E-01 </wgt>
<wgt id='1920'> +4.0047272E-01 </wgt>
<wgt id='1921'> +3.9471404E-01 </wgt>
<wgt id='1922'> +3.9002684E-01 </wgt>
<wgt id='1923'> +4.0480578E-01 </wgt>
<wgt id='1924'> +3.8843800E-01 </wgt>
<wgt id='1925'> +3.9621307E-01 </wgt>
<wgt id='1926'> +3.9757477E-01 </wgt>
<wgt id='1927'> +4.0860034E-01 </wgt>
<wgt id='1928'> +3.9324677E-01 </wgt>
<wgt id='1929'> +3.9326878E-01 </wgt>
<wgt id='1930'> +3.8500026E-01 </wgt>
<wgt id='1931'> +3.9194207E-01 </wgt>
<wgt id='1932'> +3.8387569E-01 </wgt>
<wgt id='1933'> +3.7909368E-01 </wgt>
<wgt id='1934'> +3.9692898E-01 </wgt>
<wgt id='1935'> +3.9816258E-01 </wgt>
<wgt id='1936'> +3.7849569E-01 </wgt>
<wgt id='1937'> +3.6685324E-01 </wgt>
<wgt id='1938'> +4.0009244E-01 </wgt>
<wgt id='1939'> +4.1744334E-01 </wgt>
<wgt id='1940'> +4.0373337E-01 </wgt>
<wgt id='1941'> +4.0313641E-01 </wgt>
<wgt id='1942'> +4.1053631E-01 </wgt>
<wgt id='1943'> +3.8599215E-01 </wgt>
<wgt id='1944'> +3.8820536E-01 </wgt>
<wgt id='1945'> +3.8863203E-01 </wgt>
<wgt id='1946'> +3.7715754E-01 </wgt>
<wgt id='1947'> +3.8297378E-01 </wgt>
<wgt id='1948'> +3.9514890E-01 </wgt>
<wgt id='1949'> +3.9981970E-01 </wgt>
<wgt id='1950'> +3.9675474E-01 </wgt>
<wgt id='1951'> +3.9570303E-01 </wgt>
<wgt id='1952'> +4.0286819E-01 </wgt>
<wgt id='1953'> +3.9320301E-01 </wgt>
<wgt id='1954'> +3.9419026E-01 </wgt>
<wgt id='1955'> +3.9544963E-01 </wgt>
<wgt id='1956'> +3.8468246E-01 </wgt>
<wgt id='1957'> +4.0216273E-01 </wgt>
<wgt id='1958'> +3.9212900E-01 </wgt>
<wgt id='1959'> +3.9672490E-01 </wgt>
<wgt id='1960'> +4.0603762E-01 </wgt>
<wgt id='1961'> +3.9695317E-01 </wgt>
<wgt id='1962'> +3.9575820E-01 </wgt>
<wgt id='1963'> +3.9401446E-01 </wgt>
<wgt id='1964'> +3.9343883E-01 </wgt>
<wgt id='1965'> +3.9291192E-01 </wgt>
<wgt id='1966'> +3.9872396E-01 </wgt>
<wgt id='1967'> +3.9066861E-01 </wgt>
<wgt id='1968'> +3.9351904E-01 </wgt>
<wgt id='1969'> +3.9414109E-01 </wgt>
<wgt id='1970'> +3.9610028E-01 </wgt>
<wgt id='1971'> +3.9008422E-01 </wgt>
<wgt id='1972'> +3.9247955E-01 </wgt>
<wgt id='1973'> +3.9678989E-01 </wgt>
<wgt id='1974'> +3.8809270E-01 </wgt>
<wgt id='1975'> +3.7387415E-01 </wgt>
<wgt id='1976'> +3.8787861E-01 </wgt>
<wgt id='1977'> +3.8827425E-01 </wgt>
<wgt id='1978'> +3.9080320E-01 </wgt>
<wgt id='1979'> +4.0214149E-01 </wgt>
<wgt id='1980'> +3.7974788E-01 </wgt>
<wgt id='1981'> +3.9129108E-01 </wgt>
<wgt id='1982'> +3.7973142E-01 </wgt>
<wgt id='1983'> +3.6180436E-01 </wgt>
<wgt id='1984'> +3.9836403E-01 </wgt>
<wgt id='1985'> +3.8376239E-01 </wgt>
<wgt id='1986'> +4.4666465E-01 </wgt>
<wgt id='1987'> +3.8228658E-01 </wgt>
<wgt id='1988'> +3.8774202E-01 </wgt>
<wgt id='1989'> +3.9305954E-01 </wgt>
<wgt id='1990'> +3.9801196E-01 </wgt>
<wgt id='1991'> +3.9657848E-01 </wgt>
<wgt id='1992'> +3.9742687E-01 </wgt>
<wgt id='1993'> +3.9552881E-01 </wgt>
<wgt id='1994'> +3.9141599E-01 </wgt>
<wgt id='1995'> +4.0677618E-01 </wgt>
<wgt id='1996'> +3.8674120E-01 </wgt>
<wgt id='1997'> +4.0505205E-01 </wgt>
<wgt id='1998'> +3.9599009E-01 </wgt>
<wgt id='1999'> +3.9554794E-01 </wgt>
<wgt id='2000'> +3.9895581E-01 </wgt>
<wgt id='2001'> +3.9614454E-01 </wgt>
<wgt id='2002'> +4.0965207E-01 </wgt>
<wgt id='2003'> +3.9308520E-01 </wgt>
<wgt id='2004'> +3.8722101E-01 </wgt>
<wgt id='2005'> +3.8868801E-01 </wgt>
<wgt id='2006'> +3.9553210E-01 </wgt>
<wgt id='2007'> +3.8941434E-01 </wgt>
<wgt id='2008'> +3.9112289E-01 </wgt>
<wgt id='2009'> +3.8856778E-01 </wgt>
<wgt id='2010'> +4.0244597E-01 </wgt>
<wgt id='2011'> +4.0621948E-01 </wgt>
<wgt id='2012'> +3.8919845E-01 </wgt>
<wgt id='2013'> +4.0409992E-01 </wgt>
<wgt id='2014'> +3.7035986E-01 </wgt>
<wgt id='2015'> +4.0021913E-01 </wgt>
<wgt id='2016'> +3.8265350E-01 </wgt>
<wgt id='2017'> +3.9517636E-01 </wgt>
<wgt id='2018'> +3.9527778E-01 </wgt>
<wgt id='2019'> +3.7989009E-01 </wgt>
<wgt id='2020'> +3.9243261E-01 </wgt>
<wgt id='2021'> +3.9456529E-01 </wgt>
<wgt id='2022'> +3.9381011E-01 </wgt>
</rwgt>
</event>
<event>
13      1 +3.9556008E-01 1.66077300e+02 7.81860800e-03 1.08512300e-01
        2 -1    0    0  501    0 +0.0000000000e+00 +0.0000000000e+00 +4.9844157550e+03 4.9844157550e+03 2.5500000000e-03 0.0000e+00 -1.0000e+00
       21 -1    0    0  502  503 +0.0000000000e+00 +0.0000000000e+00 -5.9782355661e+02 5.9782355661e+02 0.0000000000e+00 0.0000e+00 -1.0000e+00
  8000001  2    1    2  502    0 -1.1492561065e+02 +2.1948122823e+01 -3.5878051770e+02 7.0881104758e+02 6.0000002102e+02 0.0000e+00 0.0000e+00
        1  1    1    2  501    0 +7.2209137140e+01 -3.7070594064e+01 +4.8009110722e+03 4.8015971834e+03 5.0400000000e-03 0.0000e+00 -1.0000e+00
       -5  1    1    2    0  503 +4.2716473511e+01 +1.5122471241e+01 -5.5538356108e+01 7.1831080637e+01 4.6700000000e+00 0.0000e+00 1.0000e+00
        6  2    3    3  502    0 +7.0593434385e+01 +2.4427898638e+02 -1.7375649779e+02 3.5330900030e+02 1.7314812447e+02 0.0000e+00 0.0000e+00
        5  1    6    6  502    0 -2.4070944259e+01 +1.5237881421e+02 -8.7178079091e+01 1.7725839826e+02 4.6700000000e+00 0.0000e+00 -1.0000e+00
       24  2    6    6    0    0 +9.4664378644e+01 +9.1900172166e+01 -8.6578418697e+01 1.7605060204e+02 7.8044895205e+01 0.0000e+00 0.0000e+00
        4  1    8    8  504    0 +1.0140889129e+02 +9.8529899146e+01 -7.2003329469e+01 1.5867575938e+02 1.2700000000e+00 0.0000e+00 -1.0000e+00
       -3  1    8    8    0  504 -6.7445126501e+00 -6.6297269795e+00 -1.4575089227e+01 1.7374842667e+01 1.0100000000e-01 0.0000e+00 1.0000e+00
       23  2    3    3    0    0 -1.8551904504e+02 -2.2233086356e+02 -1.8502401991e+02 3.5550204728e+02 9.1101529704e+01 0.0000e+00 0.0000e+00
       12  1   11   11    0    0 -1.4044355578e+02 -1.3861231425e+02 -1.6747120527e+02 2.5881338956e+02 0.0000000000e+00 0.0000e+00 -1.0000e+00
      -12  1   11   11    0    0 -4.5075489259e+01 -8.3718549306e+01 -1.7552814645e+01 9.6688657721e+01 0.0000000000e+00 0.0000e+00 1.0000e+00
<mgrwt>
<rscale>  1 0.11611903e+03</rscale>
<asrwt>0</asrwt>
<pdfrwt beam="1">  1       21 0.91972858e-01 0.16607734e+03</pdfrwt>
<pdfrwt beam="2">  1        2 0.76683317e+00 0.81188862e+02</pdfrwt>
<totfact> 0.96331189e-01</totfact>
</mgrwt>
<rwgt>
<wgt id='1001'> +3.9556008E-01 </wgt>
<wgt id='1002'> +1.7152756E-01 </wgt>
<wgt id='1003'> +1.7151277E-01 </wgt>
<wgt id='1004'> +2.2562816E-01 </wgt>
<wgt id='1005'> +9.9271652E-02 </wgt>
<wgt id='1006'> +3.5791935E-01 </wgt>
<wgt id='1007'> +1.5860934E-01 </wgt>
<wgt id='1008'> +1.5859599E-01 </wgt>
<wgt id='1009'> +2.0718505E-01 </wgt>
<wgt id='1010'> +9.2916335E-02 </wgt>
<wgt id='1011'> +4.4237386E-01 </wgt>
<wgt id='1012'> +1.8679699E-01 </wgt>
<wgt id='1013'> +1.8678042E-01 </wgt>
<wgt id='1014'> +2.4778457E-01 </wgt>
<wgt id='1015'> +1.0658050E-01 </wgt>
<wgt id='1016'> +3.1605621E-01 </wgt>
<wgt id='1017'> +1.4389944E-01 </wgt>
<wgt id='1018'> +1.4388775E-01 </wgt>
<wgt id='1019'> +1.8678042E-01 </wgt>
<wgt id='1020'> +8.5409698E-02 </wgt>
<wgt id='1021'> +2.8598091E-01 </wgt>
<wgt id='1022'> +1.3306197E-01 </wgt>
<wgt id='1023'> +1.3305144E-01 </wgt>
<wgt id='1024'> +1.7151277E-01 </wgt>
<wgt id='1025'> +7.9941820E-02 </wgt>
<wgt id='1026'> +3.5346086E-01 </wgt>
<wgt id='1027'> +1.5670940E-01 </wgt>
<wgt id='1028'> +1.5669629E-01 </wgt>
<wgt id='1029'> +2.0512203E-01 </wgt>
<wgt id='1030'> +9.1697960E-02 </wgt>
<wgt id='1031'> +5.0718437E-01 </wgt>
<wgt id='1032'> +2.0720377E-01 </wgt>
<wgt id='1033'> +2.0718505E-01 </wgt>
<wgt id='1034'> +2.7719739E-01 </wgt>
<wgt id='1035'> +1.1656756E-01 </wgt>
<wgt id='1036'> +4.5892169E-01 </wgt>
<wgt id='1037'> +1.9159867E-01 </wgt>
<wgt id='1038'> +1.9158176E-01 </wgt>
<wgt id='1039'> +2.5453895E-01 </wgt>
<wgt id='1040'> +1.0910497E-01 </wgt>
<wgt id='1041'> +5.6720867E-01 </wgt>
<wgt id='1042'> +2.2564910E-01 </wgt>
<wgt id='1043'> +2.2562816E-01 </wgt>
<wgt id='1044'> +3.0441783E-01 </wgt>
<wgt id='1045'> +1.2514981E-01 </wgt>
<wgt id='1046'> +3.9556008E-01 </wgt>
<wgt id='1047'> +3.9556008E-01 </wgt>
<wgt id='1048'> +3.9556008E-01 </wgt>
<wgt id='1049'> +4.0152008E-01 </wgt>
<wgt id='1050'> +3.8082624E-01 </wgt>
<wgt id='1051'> +4.0016801E-01 </wgt>
<wgt id='1052'> +3.9667749E-01 </wgt>
<wgt id='1053'> +4.1652287E-01 </wgt>
<wgt id='1054'> +4.1799877E-01 </wgt>
<wgt id='1055'> +3.7874091E-01 </wgt>
<wgt id='1056'> +3.7225732E-01 </wgt>
<wgt id='1057'> +3.9072071E-01 </wgt>
<wgt id='1058'> +4.0656005E-01 </wgt>
<wgt id='1059'> +4.0062279E-01 </wgt>
<wgt id='1060'> +4.1362033E-01 </wgt>
<wgt id='1061'> +3.9209595E-01 </wgt>
<wgt id='1062'> +4.0303023E-01 </wgt>
<wgt id='1063'> +3.6323703E-01 </wgt>
<wgt id='1064'> +3.9552234E-01 </wgt>
<wgt id='1065'> +3.9831664E-01 </wgt>
<wgt id='1066'> +3.8015947E-01 </wgt>
<wgt id='1067'> +3.8779520E-01 </wgt>
<wgt id='1068'> +3.6962265E-01 </wgt>
<wgt id='1069'> +4.1531762E-01 </wgt>
<wgt id='1070'> +4.1877125E-01 </wgt>
<wgt id='1071'> +3.9430490E-01 </wgt>
<wgt id='1072'> +3.7079061E-01 </wgt>
<wgt id='1073'> +3.6106435E-01 </wgt>
<wgt id='1074'> +4.2895808E-01 </wgt>
<wgt id='1075'> +3.9192550E-01 </wgt>
<wgt id='1076'> +4.0271321E-01 </wgt>
<wgt id='1077'> +3.9554336E-01 </wgt>
<wgt id='1078'> +3.8266894E-01 </wgt>
<wgt id='1079'> +4.5244456E-01 </wgt>
<wgt id='1080'> +3.7416158E-01 </wgt>
<wgt id='1081'> +3.8279628E-01 </wgt>
<wgt id='1082'> +3.9838784E-01 </wgt>
<wgt id='1083'> +4.3451597E-01 </wgt>
<wgt id='1084'> +3.5880966E-01 </wgt>
<wgt id='1085'> +4.2198814E-01 </wgt>
<wgt id='1086'> +4.1906030E-01 </wgt>
<wgt id='1087'> +4.3596428E-01 </wgt>
<wgt id='1088'> +4.0363591E-01 </wgt>
<wgt id='1089'> +3.7925576E-01 </wgt>
<wgt id='1090'> +4.0819717E-01 </wgt>
<wgt id='1091'> +3.8930715E-01 </wgt>
<wgt id='1092'> +3.7153388E-01 </wgt>
<wgt id='1093'> +3.6227267E-01 </wgt>
<wgt id='1094'> +3.7328791E-01 </wgt>
<wgt id='1095'> +4.2176340E-01 </wgt>
<wgt id='1096'> +4.2813304E-01 </wgt>
<wgt id='1097'> +3.9407342E-01 </wgt>
<wgt id='1098'> +4.1541583E-01 </wgt>
<wgt id='1099'> +4.1122486E-01 </wgt>
<wgt id='1100'> +4.1779715E-01 </wgt>
<wgt id='1101'> +4.1385822E-01 </wgt>
<wgt id='1102'> +3.9421429E-01 </wgt>
<wgt id='1103'> +3.6622567E-01 </wgt>
<wgt id='1104'> +4.0025907E-01 </wgt>
<wgt id='1105'> +3.6721304E-01 </wgt>
<wgt id='1106'> +4.1222166E-01 </wgt>
<wgt id='1107'> +3.9290434E-01 </wgt>
<wgt id='1108'> +4.0479134E-01 </wgt>
<wgt id='1109'> +3.8465014E-01 </wgt>
<wgt id='1110'> +4.1275992E-01 </wgt>
<wgt id='1111'> +3.8910958E-01 </wgt>
<wgt id='1112'> +3.9080737E-01 </wgt>
<wgt id='1113'> +4.0501933E-01 </wgt>
<wgt id='1114'> +3.8520102E-01 </wgt>
<wgt id='1115'> +4.1189936E-01 </wgt>
<wgt id='1116'> +3.9480515E-01 </wgt>
<wgt id='1117'> +3.8198794E-01 </wgt>
<wgt id='1118'> +3.7600353E-01 </wgt>
<wgt id='1119'> +4.0370767E-01 </wgt>
<wgt id='1120'> +4.0303178E-01 </wgt>
<wgt id='1121'> +4.0557905E-01 </wgt>
<wgt id='1122'> +4.0005890E-01 </wgt>
<wgt id='1123'> +3.9418824E-01 </wgt>
<wgt id='1124'> +4.0319947E-01 </wgt>
<wgt id='1125'> +4.1688519E-01 </wgt>
<wgt id='1126'> +4.0167516E-01 </wgt>
<wgt id='1127'> +3.8904016E-01 </wgt>
<wgt id='1128'> +3.9528096E-01 </wgt>
<wgt id='1129'> +4.0527269E-01 </wgt>
<wgt id='1130'> +3.9871973E-01 </wgt>
<wgt id='1131'> +3.9979049E-01 </wgt>
<wgt id='1132'> +3.9087827E-01 </wgt>
<wgt id='1133'> +4.0403199E-01 </wgt>
<wgt id='1134'> +3.9064399E-01 </wgt>
<wgt id='1135'> +4.0026471E-01 </wgt>
<wgt id='1136'> +3.9037064E-01 </wgt>
<wgt id='1137'> +3.9724243E-01 </wgt>
<wgt id='1138'> +3.9658630E-01 </wgt>
<wgt id='1139'> +3.9342548E-01 </wgt>
<wgt id='1140'> +3.9649297E-01 </wgt>
<wgt id='1141'> +3.9305819E-01 </wgt>
<wgt id='1142'> +4.0122216E-01 </wgt>
<wgt id='1143'> +3.9544118E-01 </wgt>
<wgt id='1144'> +3.9974500E-01 </wgt>
<wgt id='1145'> +3.9100694E-01 </wgt>
<wgt id='1146'> +3.9634888E-01 </wgt>
<wgt id='1147'> +3.9403140E-01 </wgt>
<wgt id='1148'> +3.9556008E-01 </wgt>
<wgt id='1149'> +3.3097920E-01 </wgt>
<wgt id='1150'> +4.8788339E-01 </wgt>
<wgt id='1151'> +2.7928498E-01 </wgt>
<wgt id='1152'> +3.3371239E-01 </wgt>
<wgt id='1153'> +1.6645031E-01 </wgt>
<wgt id='1154'> +2.7251240E-01 </wgt>
<wgt id='1155'> +2.8798456E-01 </wgt>
<wgt id='1156'> +3.8116157E-01 </wgt>
<wgt id='1157'> +1.7784827E-01 </wgt>
<wgt id='1158'> +5.0203339E-01 </wgt>
<wgt id='1159'> +7.8013921E-02 </wgt>
<wgt id='1160'> +9.3768107E-02 </wgt>
<wgt id='1161'> +4.3980997E-01 </wgt>
<wgt id='1162'> -7.5856372E-02 </wgt>
<wgt id='1163'> +4.4959687E-01 </wgt>
<wgt id='1164'> +5.0164826E-01 </wgt>
<wgt id='1165'> +4.0798439E-01 </wgt>
<wgt id='1166'> +2.0688241E-01 </wgt>
<wgt id='1167'> +3.7631358E-01 </wgt>
<wgt id='1168'> +4.2642030E-01 </wgt>
<wgt id='1169'> +3.2775306E-01 </wgt>
<wgt id='1170'> +4.5145080E-01 </wgt>
<wgt id='1171'> +5.4178298E-01 </wgt>
<wgt id='1172'> +3.7750473E-01 </wgt>
<wgt id='1173'> +3.5456220E-01 </wgt>
<wgt id='1174'> +4.1063238E-01 </wgt>
<wgt id='1175'> +4.5349377E-01 </wgt>
<wgt id='1176'> +3.7338200E-01 </wgt>
<wgt id='1177'> +3.2641832E-01 </wgt>
<wgt id='1178'> +1.8184329E-01 </wgt>
<wgt id='1179'> +2.1418059E-01 </wgt>
<wgt id='1180'> +3.3814043E-01 </wgt>
<wgt id='1181'> +3.0757654E-01 </wgt>
<wgt id='1182'> +4.5133935E-01 </wgt>
<wgt id='1183'> +2.1048759E-01 </wgt>
<wgt id='1184'> +3.3231948E-01 </wgt>
<wgt id='1185'> +4.0491649E-01 </wgt>
<wgt id='1186'> +4.0969266E-01 </wgt>
<wgt id='1187'> +4.6330791E-01 </wgt>
<wgt id='1188'> +4.1985275E-01 </wgt>
<wgt id='1189'> +3.7689697E-01 </wgt>
<wgt id='1190'> +5.0301574E-01 </wgt>
<wgt id='1191'> +3.7950920E-01 </wgt>
<wgt id='1192'> +3.0712349E-01 </wgt>
<wgt id='1193'> +3.4203858E-01 </wgt>
<wgt id='1194'> +1.9627024E-02 </wgt>
<wgt id='1195'> +4.2222021E-01 </wgt>
<wgt id='1196'> +2.2258469E-01 </wgt>
<wgt id='1197'> +5.3558203E-01 </wgt>
<wgt id='1198'> +6.6795660E-02 </wgt>
<wgt id='1199'> +4.4751110E-01 </wgt>
<wgt id='1200'> +5.7856933E-01 </wgt>
<wgt id='1201'> +3.8113607E-01 </wgt>
<wgt id='1202'> +3.4591712E-01 </wgt>
<wgt id='1203'> +7.0517782E-01 </wgt>
<wgt id='1204'> +3.5607537E-01 </wgt>
<wgt id='1205'> +3.7087242E-01 </wgt>
<wgt id='1206'> +2.9003818E-01 </wgt>
<wgt id='1207'> +4.4218732E-01 </wgt>
<wgt id='1208'> +3.7833076E-01 </wgt>
<wgt id='1209'> +6.8385035E-01 </wgt>
<wgt id='1210'> +3.1618885E-01 </wgt>
<wgt id='1211'> +5.3043597E-01 </wgt>
<wgt id='1212'> +1.7018660E-01 </wgt>
<wgt id='1213'> +3.0299187E-01 </wgt>
<wgt id='1214'> +3.8901932E-01 </wgt>
<wgt id='1215'> +4.4809037E-01 </wgt>
<wgt id='1216'> +2.3375647E-01 </wgt>
<wgt id='1217'> +1.0590283E-01 </wgt>
<wgt id='1218'> +3.4378174E-01 </wgt>
<wgt id='1219'> +2.8096734E-01 </wgt>
<wgt id='1220'> +3.5354891E-01 </wgt>
<wgt id='1221'> +1.5455847E-01 </wgt>
<wgt id='1222'> +1.3612021E-01 </wgt>
<wgt id='1223'> +3.5693765E-01 </wgt>
<wgt id='1224'> +3.6441192E-01 </wgt>
<wgt id='1225'> +3.4419199E-01 </wgt>
<wgt id='1226'> +1.6152080E-01 </wgt>
<wgt id='1227'> +2.4262836E-01 </wgt>
<wgt id='1228'> +4.0461250E-01 </wgt>
<wgt id='1229'> +2.7241335E-01 </wgt>
<wgt id='1230'> +2.9234162E-01 </wgt>
<wgt id='1231'> +4.0798439E-01 </wgt>
<wgt id='1232'> +3.7412099E-01 </wgt>
<wgt id='1233'> +2.4554117E-01 </wgt>
<wgt id='1234'> +2.7769870E-01 </wgt>
<wgt id='1235'> +4.4372337E-01 </wgt>
<wgt id='1236'> +1.8116302E-01 </wgt>
<wgt id='1237'> -6.3873475E-02 </wgt>
<wgt id='1238'> +5.3734541E-01 </wgt>
<wgt id='1239'> +5.7974016E-02 </wgt>
<wgt id='1240'> +2.6286921E-01 </wgt>
<wgt id='1241'> +4.0141970E-01 </wgt>
<wgt id='1242'> +3.7119914E-01 </wgt>
<wgt id='1243'> +4.2462522E-01 </wgt>
<wgt id='1244'> +2.0114037E-01 </wgt>
<wgt id='1245'> +3.5817433E-01 </wgt>
<wgt id='1246'> +6.0431516E-01 </wgt>
<wgt id='1247'> +4.6345259E-02 </wgt>
<wgt id='1248'> +2.9227829E-01 </wgt>
<wgt id='1249'> +1.5546514E-01 </wgt>
<wgt id='1250'> +3.5107245E-01 </wgt>
<wgt id='1251'> +3.3825667E-01 </wgt>
<wgt id='1252'> +3.2699555E-01 </wgt>
<wgt id='1253'> +3.5572378E-01 </wgt>
<wgt id='1254'> +4.7418409E-01 </wgt>
<wgt id='1255'> +4.5406863E-01 </wgt>
<wgt id='1256'> +4.6008567E-01 </wgt>
<wgt id='1257'> +4.5064902E-01 </wgt>
<wgt id='1258'> +4.5344183E-01 </wgt>
<wgt id='1259'> +4.5436520E-01 </wgt>
<wgt id='1260'> +4.5593768E-01 </wgt>
<wgt id='1261'> +4.5163058E-01 </wgt>
<wgt id='1262'> +4.5546017E-01 </wgt>
<wgt id='1263'> +4.5318959E-01 </wgt>
<wgt id='1264'> +4.5471174E-01 </wgt>
<wgt id='1265'> +4.5364408E-01 </wgt>
<wgt id='1266'> +4.5351544E-01 </wgt>
<wgt id='1267'> +4.5464532E-01 </wgt>
<wgt id='1268'> +4.4806158E-01 </wgt>
<wgt id='1269'> +4.5983518E-01 </wgt>
<wgt id='1270'> +4.4301189E-01 </wgt>
<wgt id='1271'> +4.6726944E-01 </wgt>
<wgt id='1272'> +4.5875963E-01 </wgt>
<wgt id='1273'> +4.5055131E-01 </wgt>
<wgt id='1274'> +4.5726876E-01 </wgt>
<wgt id='1275'> +4.5008911E-01 </wgt>
<wgt id='1276'> +4.5573302E-01 </wgt>
<wgt id='1277'> +4.5252302E-01 </wgt>
<wgt id='1278'> +4.5376081E-01 </wgt>
<wgt id='1279'> +4.5419434E-01 </wgt>
<wgt id='1280'> +4.5353908E-01 </wgt>
<wgt id='1281'> +4.5720001E-01 </wgt>
<wgt id='1282'> +4.6022282E-01 </wgt>
<wgt id='1283'> +4.4860533E-01 </wgt>
<wgt id='1284'> +4.6377503E-01 </wgt>
<wgt id='1285'> +4.4536827E-01 </wgt>
<wgt id='1286'> +4.4520777E-01 </wgt>
<wgt id='1287'> +4.5516639E-01 </wgt>
<wgt id='1288'> +4.5455590E-01 </wgt>
<wgt id='1289'> +4.5384691E-01 </wgt>
<wgt id='1290'> +4.5284130E-01 </wgt>
<wgt id='1291'> +4.5450619E-01 </wgt>
<wgt id='1292'> +4.5612840E-01 </wgt>
<wgt id='1293'> +4.5145906E-01 </wgt>
<wgt id='1294'> +4.5536496E-01 </wgt>
<wgt id='1295'> +4.5166410E-01 </wgt>
<wgt id='1296'> +3.4213784E-01 </wgt>
<wgt id='1297'> +3.4316735E-01 </wgt>
<wgt id='1298'> +3.4131958E-01 </wgt>
<wgt id='1299'> +3.3952006E-01 </wgt>
<wgt id='1300'> +3.4500560E-01 </wgt>
<wgt id='1301'> +3.4065980E-01 </wgt>
<wgt id='1302'> +3.4431943E-01 </wgt>
<wgt id='1303'> +3.4176135E-01 </wgt>
<wgt id='1304'> +3.4235957E-01 </wgt>
<wgt id='1305'> +3.4282225E-01 </wgt>
<wgt id='1306'> +3.4114365E-01 </wgt>
<wgt id='1307'> +3.4582270E-01 </wgt>
<wgt id='1308'> +3.3987524E-01 </wgt>
<wgt id='1309'> +3.4196155E-01 </wgt>
<wgt id='1310'> +3.4235395E-01 </wgt>
<wgt id='1311'> +3.3348667E-01 </wgt>
<wgt id='1312'> +3.4521834E-01 </wgt>
<wgt id='1313'> +3.3784778E-01 </wgt>
<wgt id='1314'> +3.4748917E-01 </wgt>
<wgt id='1315'> +3.3858552E-01 </wgt>
<wgt id='1316'> +3.4554919E-01 </wgt>
<wgt id='1317'> +3.4483217E-01 </wgt>
<wgt id='1318'> +3.3738084E-01 </wgt>
<wgt id='1319'> +3.4362077E-01 </wgt>
<wgt id='1320'> +3.4126950E-01 </wgt>
<wgt id='1321'> +3.4132395E-01 </wgt>
<wgt id='1322'> +3.4251496E-01 </wgt>
<wgt id='1323'> +3.4668920E-01 </wgt>
<wgt id='1324'> +3.3749043E-01 </wgt>
<wgt id='1325'> +3.4056050E-01 </wgt>
<wgt id='1326'> +3.4472383E-01 </wgt>
<wgt id='1327'> +3.4231065E-01 </wgt>
<wgt id='1328'> +3.4203417E-01 </wgt>
<wgt id='1329'> +3.4283267E-01 </wgt>
<wgt id='1330'> +3.4170163E-01 </wgt>
<wgt id='1331'> +3.3876929E-01 </wgt>
<wgt id='1332'> +3.4532766E-01 </wgt>
<wgt id='1333'> +3.4154072E-01 </wgt>
<wgt id='1334'> +3.4489360E-01 </wgt>
<wgt id='1335'> +3.3957764E-01 </wgt>
<wgt id='1336'> +3.4293831E-01 </wgt>
<wgt id='1337'> +3.4213784E-01 </wgt>
<wgt id='1338'> +3.4300663E-01 </wgt>
<wgt id='1339'> +3.4267867E-01 </wgt>
<wgt id='1340'> +3.4242454E-01 </wgt>
<wgt id='1341'> +3.4191513E-01 </wgt>
<wgt id='1342'> +3.4182676E-01 </wgt>
<wgt id='1343'> +3.4167612E-01 </wgt>
<wgt id='1344'> +3.1253703E-01 </wgt>
<wgt id='1345'> +3.1422997E-01 </wgt>
<wgt id='1346'> +3.1084257E-01 </wgt>
<wgt id='1347'> +3.1690441E-01 </wgt>
<wgt id='1348'> +3.0934658E-01 </wgt>
<wgt id='1349'> +3.1172729E-01 </wgt>
<wgt id='1350'> +3.1320136E-01 </wgt>
<wgt id='1351'> +3.1255146E-01 </wgt>
<wgt id='1352'> +3.1250866E-01 </wgt>
<wgt id='1353'> +3.1397770E-01 </wgt>
<wgt id='1354'> +3.1152720E-01 </wgt>
<wgt id='1355'> +3.1227218E-01 </wgt>
<wgt id='1356'> +3.1272714E-01 </wgt>
<wgt id='1357'> +3.1573916E-01 </wgt>
<wgt id='1358'> +3.1061546E-01 </wgt>
<wgt id='1359'> +3.1541346E-01 </wgt>
<wgt id='1360'> +3.0508511E-01 </wgt>
<wgt id='1361'> +3.0520791E-01 </wgt>
<wgt id='1362'> +3.1870478E-01 </wgt>
<wgt id='1363'> +3.1541966E-01 </wgt>
<wgt id='1364'> +3.0905925E-01 </wgt>
<wgt id='1365'> +3.1567633E-01 </wgt>
<wgt id='1366'> +3.1121507E-01 </wgt>
<wgt id='1367'> +3.1134213E-01 </wgt>
<wgt id='1368'> +3.1310011E-01 </wgt>
<wgt id='1369'> +3.1333972E-01 </wgt>
<wgt id='1370'> +3.1190646E-01 </wgt>
<wgt id='1371'> +3.0975288E-01 </wgt>
<wgt id='1372'> +3.1639740E-01 </wgt>
<wgt id='1373'> +3.1367845E-01 </wgt>
<wgt id='1374'> +3.1263001E-01 </wgt>
<wgt id='1375'> +3.1347972E-01 </wgt>
<wgt id='1376'> +3.1228948E-01 </wgt>
<wgt id='1377'> +3.1237634E-01 </wgt>
<wgt id='1378'> +3.1285080E-01 </wgt>
<wgt id='1379'> +3.1730024E-01 </wgt>
<wgt id='1380'> +3.0985841E-01 </wgt>
<wgt id='1381'> +3.1319492E-01 </wgt>
<wgt id='1382'> +3.1300741E-01 </wgt>
<wgt id='1383'> +3.1324684E-01 </wgt>
<wgt id='1384'> +3.0995501E-01 </wgt>
<wgt id='1385'> +3.1253703E-01 </wgt>
<wgt id='1386'> +3.1371705E-01 </wgt>
<wgt id='1387'> +3.1323768E-01 </wgt>
<wgt id='1388'> +3.1281836E-01 </wgt>
<wgt id='1389'> +3.1224442E-01 </wgt>
<wgt id='1390'> +3.1203852E-01 </wgt>
<wgt id='1391'> +3.1190117E-01 </wgt>
<wgt id='1392'> +3.5218855E-01 </wgt>
<wgt id='1393'> +3.5234867E-01 </wgt>
<wgt id='1394'> +3.5201813E-01 </wgt>
<wgt id='1395'> +3.5239155E-01 </wgt>
<wgt id='1396'> +3.5204593E-01 </wgt>
<wgt id='1397'> +3.5394439E-01 </wgt>
<wgt id='1398'> +3.5049312E-01 </wgt>
<wgt id='1399'> +3.5535577E-01 </wgt>
<wgt id='1400'> +3.4831615E-01 </wgt>
<wgt id='1401'> +3.5012201E-01 </wgt>
<wgt id='1402'> +3.5474021E-01 </wgt>
<wgt id='1403'> +3.5112737E-01 </wgt>
<wgt id='1404'> +3.5431239E-01 </wgt>
<wgt id='1405'> +3.5213191E-01 </wgt>
<wgt id='1406'> +3.5226921E-01 </wgt>
<wgt id='1407'> +3.5213920E-01 </wgt>
<wgt id='1408'> +3.5222417E-01 </wgt>
<wgt id='1409'> +3.4713365E-01 </wgt>
<wgt id='1410'> +3.5790212E-01 </wgt>
<wgt id='1411'> +3.5289826E-01 </wgt>
<wgt id='1412'> +3.5165510E-01 </wgt>
<wgt id='1413'> +3.4880901E-01 </wgt>
<wgt id='1414'> +3.5580588E-01 </wgt>
<wgt id='1415'> +3.6412961E-01 </wgt>
<wgt id='1416'> +3.4083564E-01 </wgt>
<wgt id='1417'> +3.4696623E-01 </wgt>
<wgt id='1418'> +3.5869189E-01 </wgt>
<wgt id='1419'> +3.5538131E-01 </wgt>
<wgt id='1420'> +3.4929335E-01 </wgt>
<wgt id='1421'> +3.4840017E-01 </wgt>
<wgt id='1422'> +3.5658622E-01 </wgt>
<wgt id='1423'> +3.5393647E-01 </wgt>
<wgt id='1424'> +3.5134019E-01 </wgt>
<wgt id='1425'> +3.5262023E-01 </wgt>
<wgt id='1426'> +3.5164424E-01 </wgt>
<wgt id='1427'> +3.5447330E-01 </wgt>
<wgt id='1428'> +3.4820426E-01 </wgt>
<wgt id='1429'> +3.5050447E-01 </wgt>
<wgt id='1430'> +3.5354563E-01 </wgt>
<wgt id='1431'> +3.5104875E-01 </wgt>
<wgt id='1432'> +3.5333024E-01 </wgt>
<wgt id='1433'> +3.5200973E-01 </wgt>
<wgt id='1434'> +3.5253854E-01 </wgt>
<wgt id='1435'> +3.6008055E-01 </wgt>
<wgt id='1436'> +3.4631979E-01 </wgt>
<wgt id='1437'> +3.5139621E-01 </wgt>
<wgt id='1438'> +3.5439900E-01 </wgt>
<wgt id='1439'> +3.5514921E-01 </wgt>
<wgt id='1440'> +3.4903585E-01 </wgt>
<wgt id='1441'> +3.5054719E-01 </wgt>
<wgt id='1442'> +3.5309737E-01 </wgt>
<wgt id='1443'> +3.5851956E-01 </wgt>
<wgt id='1444'> +3.5868879E-01 </wgt>
<wgt id='1445'> +3.5832582E-01 </wgt>
<wgt id='1446'> +3.5874400E-01 </wgt>
<wgt id='1447'> +3.5836558E-01 </wgt>
<wgt id='1448'> +3.6044767E-01 </wgt>
<wgt id='1449'> +3.5672923E-01 </wgt>
<wgt id='1450'> +3.6165590E-01 </wgt>
<wgt id='1451'> +3.5503124E-01 </wgt>
<wgt id='1452'> +3.5655812E-01 </wgt>
<wgt id='1453'> +3.6040761E-01 </wgt>
<wgt id='1454'> +3.5738629E-01 </wgt>
<wgt id='1455'> +3.6096814E-01 </wgt>
<wgt id='1456'> +3.5854338E-01 </wgt>
<wgt id='1457'> +3.5846132E-01 </wgt>
<wgt id='1458'> +3.5850388E-01 </wgt>
<wgt id='1459'> +3.5852050E-01 </wgt>
<wgt id='1460'> +3.5366354E-01 </wgt>
<wgt id='1461'> +3.6420935E-01 </wgt>
<wgt id='1462'> +3.6039965E-01 </wgt>
<wgt id='1463'> +3.5688817E-01 </wgt>
<wgt id='1464'> +3.5581454E-01 </wgt>
<wgt id='1465'> +3.6207453E-01 </wgt>
<wgt id='1466'> +3.7639416E-01 </wgt>
<wgt id='1467'> +3.4725796E-01 </wgt>
<wgt id='1468'> +3.6270578E-01 </wgt>
<wgt id='1469'> +3.5439234E-01 </wgt>
<wgt id='1470'> +3.6140534E-01 </wgt>
<wgt id='1471'> +3.5624038E-01 </wgt>
<wgt id='1472'> +3.5499728E-01 </wgt>
<wgt id='1473'> +3.6268437E-01 </wgt>
<wgt id='1474'> +3.5977003E-01 </wgt>
<wgt id='1475'> +3.5752434E-01 </wgt>
<wgt id='1476'> +3.5910409E-01 </wgt>
<wgt id='1477'> +3.5800254E-01 </wgt>
<wgt id='1478'> +3.6057202E-01 </wgt>
<wgt id='1479'> +3.5449491E-01 </wgt>
<wgt id='1480'> +3.5560400E-01 </wgt>
<wgt id='1481'> +3.6075347E-01 </wgt>
<wgt id='1482'> +3.5769009E-01 </wgt>
<wgt id='1483'> +3.5945713E-01 </wgt>
<wgt id='1484'> +3.5948906E-01 </wgt>
<wgt id='1485'> +3.5751650E-01 </wgt>
<wgt id='1486'> +3.6689265E-01 </wgt>
<wgt id='1487'> +3.5215235E-01 </wgt>
<wgt id='1488'> +3.5793732E-01 </wgt>
<wgt id='1489'> +3.6009692E-01 </wgt>
<wgt id='1490'> +3.6245482E-01 </wgt>
<wgt id='1491'> +3.5464416E-01 </wgt>
<wgt id='1492'> +3.5713009E-01 </wgt>
<wgt id='1493'> +3.5937904E-01 </wgt>
<wgt id='1494'> +3.3619478E-01 </wgt>
<wgt id='1495'> +3.4590420E-01 </wgt>
<wgt id='1496'> +3.4254216E-01 </wgt>
<wgt id='1497'> +3.3916414E-01 </wgt>
<wgt id='1498'> +3.3252866E-01 </wgt>
<wgt id='1499'> +3.3599829E-01 </wgt>
<wgt id='1500'> +3.3842474E-01 </wgt>
<wgt id='1501'> +3.3796339E-01 </wgt>
<wgt id='1502'> +3.3765606E-01 </wgt>
<wgt id='1503'> +3.3718171E-01 </wgt>
<wgt id='1504'> +3.3657704E-01 </wgt>
<wgt id='1505'> +3.3514308E-01 </wgt>
<wgt id='1506'> +3.3450268E-01 </wgt>
<wgt id='1507'> +3.3384296E-01 </wgt>
<wgt id='1508'> +3.3599829E-01 </wgt>
<wgt id='1509'> +3.3711522E-01 </wgt>
<wgt id='1510'> +3.3652042E-01 </wgt>
<wgt id='1511'> +3.3554284E-01 </wgt>
<wgt id='1512'> +3.3495954E-01 </wgt>
<wgt id='1513'> +2.8594507E-01 </wgt>
<wgt id='1514'> +2.8594106E-01 </wgt>
<wgt id='1515'> +2.8596567E-01 </wgt>
<wgt id='1516'> +2.8654232E-01 </wgt>
<wgt id='1517'> +2.8536135E-01 </wgt>
<wgt id='1518'> +2.8649362E-01 </wgt>
<wgt id='1519'> +2.8573108E-01 </wgt>
<wgt id='1520'> +2.8950607E-01 </wgt>
<wgt id='1521'> +2.8243140E-01 </wgt>
<wgt id='1522'> +2.8510093E-01 </wgt>
<wgt id='1523'> +2.8676443E-01 </wgt>
<wgt id='1524'> +2.8949753E-01 </wgt>
<wgt id='1525'> +2.8441812E-01 </wgt>
<wgt id='1526'> +2.8618240E-01 </wgt>
<wgt id='1527'> +2.8566301E-01 </wgt>
<wgt id='1528'> +2.8559124E-01 </wgt>
<wgt id='1529'> +2.8633435E-01 </wgt>
<wgt id='1530'> +2.8350759E-01 </wgt>
<wgt id='1531'> +2.8732107E-01 </wgt>
<wgt id='1532'> +2.8254578E-01 </wgt>
<wgt id='1533'> +2.9061300E-01 </wgt>
<wgt id='1534'> +2.8387975E-01 </wgt>
<wgt id='1535'> +2.8740415E-01 </wgt>
<wgt id='1536'> +2.9173327E-01 </wgt>
<wgt id='1537'> +2.8049377E-01 </wgt>
<wgt id='1538'> +2.8128840E-01 </wgt>
<wgt id='1539'> +2.9796644E-01 </wgt>
<wgt id='1540'> +2.8913872E-01 </wgt>
<wgt id='1541'> +2.8285067E-01 </wgt>
<wgt id='1542'> +2.8726922E-01 </wgt>
<wgt id='1543'> +2.8268564E-01 </wgt>
<wgt id='1544'> +2.8783882E-01 </wgt>
<wgt id='1545'> +2.8259355E-01 </wgt>
<wgt id='1546'> +2.8674887E-01 </wgt>
<wgt id='1547'> +2.8476646E-01 </wgt>
<wgt id='1548'> +2.8319358E-01 </wgt>
<wgt id='1549'> +2.8751304E-01 </wgt>
<wgt id='1550'> +2.8691351E-01 </wgt>
<wgt id='1551'> +2.8457316E-01 </wgt>
<wgt id='1552'> +2.8503001E-01 </wgt>
<wgt id='1553'> +2.8666729E-01 </wgt>
<wgt id='1554'> +2.8517982E-01 </wgt>
<wgt id='1555'> +2.8755246E-01 </wgt>
<wgt id='1556'> +2.8752076E-01 </wgt>
<wgt id='1557'> +2.7744142E-01 </wgt>
<wgt id='1558'> +2.8402273E-01 </wgt>
<wgt id='1559'> +2.8767479E-01 </wgt>
<wgt id='1560'> +2.8763099E-01 </wgt>
<wgt id='1561'> +2.8531750E-01 </wgt>
<wgt id='1562'> +2.8620337E-01 </wgt>
<wgt id='1563'> +2.8588011E-01 </wgt>
<wgt id='1564'> +2.8594507E-01 </wgt>
<wgt id='1565'> +2.8926292E-01 </wgt>
<wgt id='1566'> +2.8333047E-01 </wgt>
<wgt id='1567'> +2.8651224E-01 </wgt>
<wgt id='1568'> +2.8861949E-01 </wgt>
<wgt id='1569'> +2.8819083E-01 </wgt>
<wgt id='1570'> +2.8782402E-01 </wgt>
<wgt id='1571'> +2.8747168E-01 </wgt>
<wgt id='1572'> +2.8699275E-01 </wgt>
<wgt id='1573'> +2.8584532E-01 </wgt>
<wgt id='1574'> +2.8516765E-01 </wgt>
<wgt id='1575'> +2.8461796E-01 </wgt>
<wgt id='1576'> +2.8651224E-01 </wgt>
<wgt id='1577'> +2.8751791E-01 </wgt>
<wgt id='1578'> +2.8696963E-01 </wgt>
<wgt id='1579'> +2.8605232E-01 </wgt>
<wgt id='1580'> +2.8571635E-01 </wgt>
<wgt id='1581'> +3.3426655E-01 </wgt>
<wgt id='1582'> +3.2558741E-01 </wgt>
<wgt id='1583'> +3.3007138E-01 </wgt>
<wgt id='1584'> +3.3241098E-01 </wgt>
<wgt id='1585'> +3.1348991E-01 </wgt>
<wgt id='1586'> +3.3065239E-01 </wgt>
<wgt id='1587'> +3.3090389E-01 </wgt>
<wgt id='1588'> +3.2538298E-01 </wgt>
<wgt id='1589'> +3.3400938E-01 </wgt>
<wgt id='1590'> +3.3584509E-01 </wgt>
<wgt id='1591'> +3.3342119E-01 </wgt>
<wgt id='1592'> +3.2956614E-01 </wgt>
<wgt id='1593'> +3.3303617E-01 </wgt>
<wgt id='1594'> +3.3080499E-01 </wgt>
<wgt id='1595'> +3.3589335E-01 </wgt>
<wgt id='1596'> +3.3363590E-01 </wgt>
<wgt id='1597'> +3.3714243E-01 </wgt>
<wgt id='1598'> +3.3017068E-01 </wgt>
<wgt id='1599'> +3.3634131E-01 </wgt>
<wgt id='1600'> +3.3096250E-01 </wgt>
<wgt id='1601'> +3.3523995E-01 </wgt>
<wgt id='1602'> +3.1148291E-01 </wgt>
<wgt id='1603'> +3.3501671E-01 </wgt>
<wgt id='1604'> +3.3771256E-01 </wgt>
<wgt id='1605'> +3.3547878E-01 </wgt>
<wgt id='1606'> +3.3408472E-01 </wgt>
<wgt id='1607'> +3.3402697E-01 </wgt>
<wgt id='1608'> +3.3208313E-01 </wgt>
<wgt id='1609'> +3.3087853E-01 </wgt>
<wgt id='1610'> +3.2788736E-01 </wgt>
<wgt id='1611'> +3.2981208E-01 </wgt>
<wgt id='1612'> +3.8545088E-01 </wgt>
<wgt id='1613'> +3.7747995E-01 </wgt>
<wgt id='1614'> +4.0460160E-01 </wgt>
<wgt id='1615'> +4.0011476E-01 </wgt>
<wgt id='1616'> +3.8764324E-01 </wgt>
<wgt id='1617'> +3.8503729E-01 </wgt>
<wgt id='1618'> +3.9758805E-01 </wgt>
<wgt id='1619'> +3.7729838E-01 </wgt>
<wgt id='1620'> +3.9243533E-01 </wgt>
<wgt id='1621'> +3.9282213E-01 </wgt>
<wgt id='1622'> +3.9296085E-01 </wgt>
<wgt id='1623'> +3.8312418E-01 </wgt>
<wgt id='1624'> +3.7660455E-01 </wgt>
<wgt id='1625'> +3.7679901E-01 </wgt>
<wgt id='1626'> +4.0314062E-01 </wgt>
<wgt id='1627'> +3.7946737E-01 </wgt>
<wgt id='1628'> +3.8664143E-01 </wgt>
<wgt id='1629'> +3.8405187E-01 </wgt>
<wgt id='1630'> +3.8816821E-01 </wgt>
<wgt id='1631'> +3.8226723E-01 </wgt>
<wgt id='1632'> +3.7498372E-01 </wgt>
<wgt id='1633'> +3.8585222E-01 </wgt>
<wgt id='1634'> +3.8007616E-01 </wgt>
<wgt id='1635'> +3.8070884E-01 </wgt>
<wgt id='1636'> +3.8679372E-01 </wgt>
<wgt id='1637'> +3.8251579E-01 </wgt>
<wgt id='1638'> +3.9118153E-01 </wgt>
<wgt id='1639'> +3.9945932E-01 </wgt>
<wgt id='1640'> +3.9032965E-01 </wgt>
<wgt id='1641'> +3.5395172E-01 </wgt>
<wgt id='1642'> +3.7956225E-01 </wgt>
<wgt id='1643'> +3.6144432E-01 </wgt>
<wgt id='1644'> +3.5504091E-01 </wgt>
<wgt id='1645'> +4.1601433E-01 </wgt>
<wgt id='1646'> +3.7829930E-01 </wgt>
<wgt id='1647'> +3.8100846E-01 </wgt>
<wgt id='1648'> +3.8082301E-01 </wgt>
<wgt id='1649'> +4.1903634E-01 </wgt>
<wgt id='1650'> +3.9851313E-01 </wgt>
<wgt id='1651'> +3.8467185E-01 </wgt>
<wgt id='1652'> +3.7575290E-01 </wgt>
<wgt id='1653'> +3.8185234E-01 </wgt>
<wgt id='1654'> +3.8986771E-01 </wgt>
<wgt id='1655'> +4.0879039E-01 </wgt>
<wgt id='1656'> +3.8427582E-01 </wgt>
<wgt id='1657'> +4.0451053E-01 </wgt>
<wgt id='1658'> +3.4494271E-01 </wgt>
<wgt id='1659'> +3.3972843E-01 </wgt>
<wgt id='1660'> +3.1688450E-01 </wgt>
<wgt id='1661'> +3.4278065E-01 </wgt>
<wgt id='1662'> +3.8830749E-01 </wgt>
<wgt id='1663'> +3.9972725E-01 </wgt>
<wgt id='1664'> +3.6696984E-01 </wgt>
<wgt id='1665'> +3.8399705E-01 </wgt>
<wgt id='1666'> +3.8373624E-01 </wgt>
<wgt id='1667'> +3.9454313E-01 </wgt>
<wgt id='1668'> +3.7018293E-01 </wgt>
<wgt id='1669'> +3.5297827E-01 </wgt>
<wgt id='1670'> +3.8978316E-01 </wgt>
<wgt id='1671'> +3.7236553E-01 </wgt>
<wgt id='1672'> +3.7175665E-01 </wgt>
<wgt id='1673'> +3.7396481E-01 </wgt>
<wgt id='1674'> +4.2911513E-01 </wgt>
<wgt id='1675'> +4.1223035E-01 </wgt>
<wgt id='1676'> +3.6190157E-01 </wgt>
<wgt id='1677'> +3.9060245E-01 </wgt>
<wgt id='1678'> +3.7026400E-01 </wgt>
<wgt id='1679'> +3.9407990E-01 </wgt>
<wgt id='1680'> +3.8390719E-01 </wgt>
<wgt id='1681'> +4.1010706E-01 </wgt>
<wgt id='1682'> +3.7616185E-01 </wgt>
<wgt id='1683'> +3.8552121E-01 </wgt>
<wgt id='1684'> +3.8263951E-01 </wgt>
<wgt id='1685'> +3.8597349E-01 </wgt>
<wgt id='1686'> +3.8788185E-01 </wgt>
<wgt id='1687'> +3.8030833E-01 </wgt>
<wgt id='1688'> +3.8364764E-01 </wgt>
<wgt id='1689'> +3.7727762E-01 </wgt>
<wgt id='1690'> +3.9935862E-01 </wgt>
<wgt id='1691'> +3.9418630E-01 </wgt>
<wgt id='1692'> +3.8035836E-01 </wgt>
<wgt id='1693'> +3.7775828E-01 </wgt>
<wgt id='1694'> +3.8755447E-01 </wgt>
<wgt id='1695'> +3.9955133E-01 </wgt>
<wgt id='1696'> +3.8844072E-01 </wgt>
<wgt id='1697'> +3.9143197E-01 </wgt>
<wgt id='1698'> +3.9471196E-01 </wgt>
<wgt id='1699'> +3.9601367E-01 </wgt>
<wgt id='1700'> +3.7731705E-01 </wgt>
<wgt id='1701'> +3.7709218E-01 </wgt>
<wgt id='1702'> +3.8833983E-01 </wgt>
<wgt id='1703'> +3.7160836E-01 </wgt>
<wgt id='1704'> +3.8040382E-01 </wgt>
<wgt id='1705'> +3.6861144E-01 </wgt>
<wgt id='1706'> +3.8912270E-01 </wgt>
<wgt id='1707'> +3.8340895E-01 </wgt>
<wgt id='1708'> +3.8281377E-01 </wgt>
<wgt id='1709'> +3.8019398E-01 </wgt>
<wgt id='1710'> +3.8557242E-01 </wgt>
<wgt id='1711'> +3.8525571E-01 </wgt>
<wgt id='1712'> +3.7916787E-01 </wgt>
<wgt id='1713'> +3.7477987E-01 </wgt>
<wgt id='1714'> +4.2279528E-01 </wgt>
<wgt id='1715'> +3.1446560E-01 </wgt>
<wgt id='1716'> +3.4273370E-01 </wgt>
<wgt id='1717'> +3.7915829E-01 </wgt>
<wgt id='1718'> +2.6912816E-01 </wgt>
<wgt id='1719'> +3.1912283E-01 </wgt>
<wgt id='1720'> +3.5106030E-01 </wgt>
<wgt id='1721'> +3.0965055E-01 </wgt>
<wgt id='1722'> +4.0534907E-01 </wgt>
<wgt id='1723'> +2.8125975E-01 </wgt>
<wgt id='1724'> +5.7625544E-01 </wgt>
<wgt id='1725'> +3.3084505E-01 </wgt>
<wgt id='1726'> +3.1080717E-01 </wgt>
<wgt id='1727'> +3.4170383E-01 </wgt>
<wgt id='1728'> +4.3655051E-02 </wgt>
<wgt id='1729'> +5.2395757E-01 </wgt>
<wgt id='1730'> -4.8467453E-02 </wgt>
<wgt id='1731'> +6.5220828E-02 </wgt>
<wgt id='1732'> +3.0942686E-01 </wgt>
<wgt id='1733'> +2.8812250E-01 </wgt>
<wgt id='1734'> +3.0651351E-01 </wgt>
<wgt id='1735'> +2.8579175E-01 </wgt>
<wgt id='1736'> +2.3620589E-01 </wgt>
<wgt id='1737'> +4.6005418E-01 </wgt>
<wgt id='1738'> +4.1723740E-01 </wgt>
<wgt id='1739'> +3.8525388E-01 </wgt>
<wgt id='1740'> +3.0122788E-01 </wgt>
<wgt id='1741'> -4.7513579E-01 </wgt>
<wgt id='1742'> +3.6282808E-01 </wgt>
<wgt id='1743'> +2.3346270E-01 </wgt>
<wgt id='1744'> +2.5715477E-01 </wgt>
<wgt id='1745'> +4.8705777E-01 </wgt>
<wgt id='1746'> +2.2279095E-01 </wgt>
<wgt id='1747'> +3.8009419E-01 </wgt>
<wgt id='1748'> +3.2390847E-01 </wgt>
<wgt id='1749'> +3.1602153E-01 </wgt>
<wgt id='1750'> +2.9293124E-01 </wgt>
<wgt id='1751'> +7.6405147E-02 </wgt>
<wgt id='1752'> +2.8805461E-01 </wgt>
<wgt id='1753'> +4.0876199E-01 </wgt>
<wgt id='1754'> +5.0393987E-01 </wgt>
<wgt id='1755'> +2.3055111E-01 </wgt>
<wgt id='1756'> +3.4407408E-01 </wgt>
<wgt id='1757'> +5.0729434E-01 </wgt>
<wgt id='1758'> +3.2053267E-01 </wgt>
<wgt id='1759'> +5.1374057E-01 </wgt>
<wgt id='1760'> +4.5921853E-01 </wgt>
<wgt id='1761'> +1.9457265E-01 </wgt>
<wgt id='1762'> +3.4170383E-01 </wgt>
<wgt id='1763'> +2.8325242E-01 </wgt>
<wgt id='1764'> +3.3426908E-01 </wgt>
<wgt id='1765'> +3.9964956E-01 </wgt>
<wgt id='1766'> +3.6995214E-01 </wgt>
<wgt id='1767'> +4.1125760E-01 </wgt>
<wgt id='1768'> +3.6494008E-01 </wgt>
<wgt id='1769'> +4.6950296E-01 </wgt>
<wgt id='1770'> +3.3715298E-01 </wgt>
<wgt id='1771'> +3.7475691E-01 </wgt>
<wgt id='1772'> +4.0942061E-01 </wgt>
<wgt id='1773'> +1.6141151E-01 </wgt>
<wgt id='1774'> +3.4473004E-01 </wgt>
<wgt id='1775'> +4.6288515E-01 </wgt>
<wgt id='1776'> +3.2540912E-01 </wgt>
<wgt id='1777'> +3.5084932E-01 </wgt>
<wgt id='1778'> +4.2788380E-01 </wgt>
<wgt id='1779'> +7.3209403E-02 </wgt>
<wgt id='1780'> +5.4386626E-01 </wgt>
<wgt id='1781'> +3.0370397E-01 </wgt>
<wgt id='1782'> +4.1287942E-01 </wgt>
<wgt id='1783'> +9.9769380E-02 </wgt>
<wgt id='1784'> +2.0678229E-01 </wgt>
<wgt id='1785'> +5.5029505E-01 </wgt>
<wgt id='1786'> +4.2407467E-01 </wgt>
<wgt id='1787'> +2.8346221E-01 </wgt>
<wgt id='1788'> +1.5403034E-01 </wgt>
<wgt id='1789'> +1.0096029E-01 </wgt>
<wgt id='1790'> +3.5854835E-01 </wgt>
<wgt id='1791'> +3.2252779E-01 </wgt>
<wgt id='1792'> +2.9072606E-01 </wgt>
<wgt id='1793'> +4.1471729E-01 </wgt>
<wgt id='1794'> +4.2595568E-01 </wgt>
<wgt id='1795'> +3.9100927E-01 </wgt>
<wgt id='1796'> +3.6856001E-01 </wgt>
<wgt id='1797'> +3.2127034E-01 </wgt>
<wgt id='1798'> +4.1844293E-01 </wgt>
<wgt id='1799'> +1.6576540E-01 </wgt>
<wgt id='1800'> -1.2655332E-01 </wgt>
<wgt id='1801'> +1.5498567E-01 </wgt>
<wgt id='1802'> -1.3113299E-02 </wgt>
<wgt id='1803'> +2.8663742E-01 </wgt>
<wgt id='1804'> +4.8062163E-01 </wgt>
<wgt id='1805'> +3.7017700E-01 </wgt>
<wgt id='1806'> +3.8150884E-01 </wgt>
<wgt id='1807'> +4.2576722E-01 </wgt>
<wgt id='1808'> +3.9145552E-01 </wgt>
<wgt id='1809'> +2.9586975E-01 </wgt>
<wgt id='1810'> +2.7188401E-01 </wgt>
<wgt id='1811'> +3.1801211E-01 </wgt>
<wgt id='1812'> +3.3346133E-01 </wgt>
<wgt id='1813'> +2.1113928E-01 </wgt>
<wgt id='1814'> +2.9948651E-01 </wgt>
<wgt id='1815'> +5.1605011E-01 </wgt>
<wgt id='1816'> +3.0191087E-01 </wgt>
<wgt id='1817'> +2.5647127E-01 </wgt>
<wgt id='1818'> +3.5211174E-01 </wgt>
<wgt id='1819'> +2.6709161E-01 </wgt>
<wgt id='1820'> +3.4414584E-01 </wgt>
<wgt id='1821'> +3.7095750E-01 </wgt>
<wgt id='1822'> +3.4752723E-01 </wgt>
<wgt id='1823'> +3.7354573E-01 </wgt>
<wgt id='1824'> +2.7927123E-01 </wgt>
<wgt id='1825'> +2.6492857E-01 </wgt>
<wgt id='1826'> +3.5440611E-01 </wgt>
<wgt id='1827'> +2.7753266E-01 </wgt>
<wgt id='1828'> +2.3746934E-01 </wgt>
<wgt id='1829'> +2.8723250E-01 </wgt>
<wgt id='1830'> +3.1066551E-01 </wgt>
<wgt id='1831'> +3.2001848E-01 </wgt>
<wgt id='1832'> +1.9634410E-01 </wgt>
<wgt id='1833'> +3.1642031E-01 </wgt>
<wgt id='1834'> +3.8999716E-01 </wgt>
<wgt id='1835'> +2.4939846E-01 </wgt>
<wgt id='1836'> +2.3686920E-01 </wgt>
<wgt id='1837'> +2.5871819E-01 </wgt>
<wgt id='1838'> +2.7128569E-01 </wgt>
<wgt id='1839'> +3.9863836E-01 </wgt>
<wgt id='1840'> +3.0545207E-01 </wgt>
<wgt id='1841'> +1.9898190E-01 </wgt>
<wgt id='1842'> +3.4924155E-01 </wgt>
<wgt id='1843'> +2.2901267E-01 </wgt>
<wgt id='1844'> +2.8399157E-01 </wgt>
<wgt id='1845'> +2.9985582E-01 </wgt>
<wgt id='1846'> +2.6340613E-01 </wgt>
<wgt id='1847'> +3.1103420E-01 </wgt>
<wgt id='1848'> +3.3321330E-01 </wgt>
<wgt id='1849'> +2.6423968E-01 </wgt>
<wgt id='1850'> +2.6804005E-01 </wgt>
<wgt id='1851'> +3.0151223E-01 </wgt>
<wgt id='1852'> +2.4097742E-01 </wgt>
<wgt id='1853'> +3.2341146E-01 </wgt>
<wgt id='1854'> +3.2101658E-01 </wgt>
<wgt id='1855'> +4.3185698E-01 </wgt>
<wgt id='1856'> +3.0941490E-01 </wgt>
<wgt id='1857'> +3.5028399E-01 </wgt>
<wgt id='1858'> +3.0099216E-01 </wgt>
<wgt id='1859'> +3.1549542E-01 </wgt>
<wgt id='1860'> +2.6664977E-01 </wgt>
<wgt id='1861'> +3.1567162E-01 </wgt>
<wgt id='1862'> +2.7783078E-01 </wgt>
<wgt id='1863'> +3.1288092E-01 </wgt>
<wgt id='1864'> +3.1616185E-01 </wgt>
<wgt id='1865'> +2.7025823E-01 </wgt>
<wgt id='1866'> +2.7435286E-01 </wgt>
<wgt id='1867'> +3.5948429E-01 </wgt>
<wgt id='1868'> +2.7340573E-01 </wgt>
<wgt id='1869'> +3.1803936E-01 </wgt>
<wgt id='1870'> +3.4372351E-01 </wgt>
<wgt id='1871'> +3.1934590E-01 </wgt>
<wgt id='1872'> +4.7792756E-01 </wgt>
<wgt id='1873'> +2.5758626E-01 </wgt>
<wgt id='1874'> +2.8252735E-01 </wgt>
<wgt id='1875'> +3.0553183E-01 </wgt>
<wgt id='1876'> +2.6112884E-01 </wgt>
<wgt id='1877'> +2.6512094E-01 </wgt>
<wgt id='1878'> +2.8495800E-01 </wgt>
<wgt id='1879'> +1.9832627E-01 </wgt>
<wgt id='1880'> +3.2427129E-01 </wgt>
<wgt id='1881'> +3.9181417E-01 </wgt>
<wgt id='1882'> +3.2550322E-01 </wgt>
<wgt id='1883'> +3.5259237E-01 </wgt>
<wgt id='1884'> +3.6722873E-01 </wgt>
<wgt id='1885'> +3.6034382E-01 </wgt>
<wgt id='1886'> +2.7944518E-01 </wgt>
<wgt id='1887'> +2.6660528E-01 </wgt>
<wgt id='1888'> +2.8299369E-01 </wgt>
<wgt id='1889'> +2.9772361E-01 </wgt>
<wgt id='1890'> +1.9502878E-01 </wgt>
<wgt id='1891'> +1.8504333E-01 </wgt>
<wgt id='1892'> +2.6449334E-01 </wgt>
<wgt id='1893'> +3.0482778E-01 </wgt>
<wgt id='1894'> +3.4287129E-01 </wgt>
<wgt id='1895'> +3.8661019E-01 </wgt>
<wgt id='1896'> +3.3261048E-01 </wgt>
<wgt id='1897'> +3.4374989E-01 </wgt>
<wgt id='1898'> +3.0502269E-01 </wgt>
<wgt id='1899'> +3.1719283E-01 </wgt>
<wgt id='1900'> +3.1388167E-01 </wgt>
<wgt id='1901'> +3.7718918E-01 </wgt>
<wgt id='1902'> +2.2746030E-01 </wgt>
<wgt id='1903'> +2.7746100E-01 </wgt>
<wgt id='1904'> +2.9932176E-01 </wgt>
<wgt id='1905'> +2.7553356E-01 </wgt>
<wgt id='1906'> +2.9636693E-01 </wgt>
<wgt id='1907'> +2.4243917E-01 </wgt>
<wgt id='1908'> +2.8988941E-01 </wgt>
<wgt id='1909'> +3.1922839E-01 </wgt>
<wgt id='1910'> +2.6537229E-01 </wgt>
<wgt id='1911'> +2.0093848E-01 </wgt>
<wgt id='1912'> +3.3030501E-01 </wgt>
<wgt id='1913'> +4.4964279E-01 </wgt>
<wgt id='1914'> +3.0945718E-01 </wgt>
<wgt id='1915'> +2.8997760E-01 </wgt>
<wgt id='1916'> +2.4946033E-01 </wgt>
<wgt id='1917'> +4.2939166E-01 </wgt>
<wgt id='1918'> +4.4656636E-01 </wgt>
<wgt id='1919'> +3.0191087E-01 </wgt>
<wgt id='1920'> +2.5647127E-01 </wgt>
<wgt id='1921'> +3.5211174E-01 </wgt>
<wgt id='1922'> +2.6709161E-01 </wgt>
<wgt id='1923'> +3.4414584E-01 </wgt>
<wgt id='1924'> +3.7095750E-01 </wgt>
<wgt id='1925'> +3.4752723E-01 </wgt>
<wgt id='1926'> +3.7354573E-01 </wgt>
<wgt id='1927'> +2.7927123E-01 </wgt>
<wgt id='1928'> +2.6492857E-01 </wgt>
<wgt id='1929'> +3.5440611E-01 </wgt>
<wgt id='1930'> +2.7753266E-01 </wgt>
<wgt id='1931'> +2.3746934E-01 </wgt>
<wgt id='1932'> +2.8723250E-01 </wgt>
<wgt id='1933'> +3.1066551E-01 </wgt>
<wgt id='1934'> +3.2001848E-01 </wgt>
<wgt id='1935'> +1.9634410E-01 </wgt>
<wgt id='1936'> +3.1642031E-01 </wgt>
<wgt id='1937'> +3.8999716E-01 </wgt>
<wgt id='1938'> +2.4939846E-01 </wgt>
<wgt id='1939'> +2.3686920E-01 </wgt>
<wgt id='1940'> +2.5871819E-01 </wgt>
<wgt id='1941'> +2.7128569E-01 </wgt>
<wgt id='1942'> +3.9863836E-01 </wgt>
<wgt id='1943'> +3.0545207E-01 </wgt>
<wgt id='1944'> +1.9898190E-01 </wgt>
<wgt id='1945'> +3.4924155E-01 </wgt>
<wgt id='1946'> +2.2901267E-01 </wgt>
<wgt id='1947'> +2.8399157E-01 </wgt>
<wgt id='1948'> +2.9985582E-01 </wgt>
<wgt id='1949'> +2.6340613E-01 </wgt>
<wgt id='1950'> +3.1103420E-01 </wgt>
<wgt id='1951'> +3.3321330E-01 </wgt>
<wgt id='1952'> +2.6423968E-01 </wgt>
<wgt id='1953'> +2.6804005E-01 </wgt>
<wgt id='1954'> +3.0151223E-01 </wgt>
<wgt id='1955'> +2.4097742E-01 </wgt>
<wgt id='1956'> +3.2341146E-01 </wgt>
<wgt id='1957'> +3.2101658E-01 </wgt>
<wgt id='1958'> +4.3185698E-01 </wgt>
<wgt id='1959'> +3.0941490E-01 </wgt>
<wgt id='1960'> +3.5028399E-01 </wgt>
<wgt id='1961'> +3.0099216E-01 </wgt>
<wgt id='1962'> +3.1549542E-01 </wgt>
<wgt id='1963'> +2.6664977E-01 </wgt>
<wgt id='1964'> +3.1567162E-01 </wgt>
<wgt id='1965'> +2.7783078E-01 </wgt>
<wgt id='1966'> +3.1288092E-01 </wgt>
<wgt id='1967'> +3.1616185E-01 </wgt>
<wgt id='1968'> +2.7025823E-01 </wgt>
<wgt id='1969'> +2.7435286E-01 </wgt>
<wgt id='1970'> +3.5948429E-01 </wgt>
<wgt id='1971'> +2.7340573E-01 </wgt>
<wgt id='1972'> +3.1803936E-01 </wgt>
<wgt id='1973'> +3.4372351E-01 </wgt>
<wgt id='1974'> +3.1934590E-01 </wgt>
<wgt id='1975'> +4.7792756E-01 </wgt>
<wgt id='1976'> +2.5758626E-01 </wgt>
<wgt id='1977'> +2.8252735E-01 </wgt>
<wgt id='1978'> +3.0553183E-01 </wgt>
<wgt id='1979'> +2.6112884E-01 </wgt>
<wgt id='1980'> +2.6512094E-01 </wgt>
<wgt id='1981'> +2.8495800E-01 </wgt>
<wgt id='1982'> +1.9832627E-01 </wgt>
<wgt id='1983'> +3.2427129E-01 </wgt>
<wgt id='1984'> +3.9181417E-01 </wgt>
<wgt id='1985'> +3.2550322E-01 </wgt>
<wgt id='1986'> +3.5259237E-01 </wgt>
<wgt id='1987'> +3.6722873E-01 </wgt>
<wgt id='1988'> +3.6034382E-01 </wgt>
<wgt id='1989'> +2.7944518E-01 </wgt>
<wgt id='1990'> +2.6660528E-01 </wgt>
<wgt id='1991'> +2.8299369E-01 </wgt>
<wgt id='1992'> +2.9772361E-01 </wgt>
<wgt id='1993'> +1.9502878E-01 </wgt>
<wgt id='1994'> +1.8504333E-01 </wgt>
<wgt id='1995'> +2.6449334E-01 </wgt>
<wgt id='1996'> +3.0482778E-01 </wgt>
<wgt id='1997'> +3.4287129E-01 </wgt>
<wgt id='1998'> +3.8661019E-01 </wgt>
<wgt id='1999'> +3.3261048E-01 </wgt>
<wgt id='2000'> +3.4374989E-01 </wgt>
<wgt id='2001'> +3.0502269E-01 </wgt>
<wgt id='2002'> +3.1719283E-01 </wgt>
<wgt id='2003'> +3.1388167E-01 </wgt>
<wgt id='2004'> +3.7718918E-01 </wgt>
<wgt id='2005'> +2.2746030E-01 </wgt>
<wgt id='2006'> +2.7746100E-01 </wgt>
<wgt id='2007'> +2.9932176E-01 </wgt>
<wgt id='2008'> +2.7553356E-01 </wgt>
<wgt id='2009'> +2.9636693E-01 </wgt>
<wgt id='2010'> +2.4243917E-01 </wgt>
<wgt id='2011'> +2.8988941E-01 </wgt>
<wgt id='2012'> +3.1922839E-01 </wgt>
<wgt id='2013'> +2.6537229E-01 </wgt>
<wgt id='2014'> +2.0093848E-01 </wgt>
<wgt id='2015'> +3.3030501E-01 </wgt>
<wgt id='2016'> +4.4964279E-01 </wgt>
<wgt id='2017'> +3.0945718E-01 </wgt>
<wgt id='2018'> +2.8997760E-01 </wgt>
<wgt id='2019'> +2.4946033E-01 </wgt>
<wgt id='2020'> +3.0124550E-01 </wgt>
<wgt id='2021'> +3.1605015E-01 </wgt>
<wgt id='2022'> +2.8907448E-01 </wgt>
</rwgt>
</event>
<event>
13      1 +3.9556008E-01 7.25217100e+01 7.81860800e-03 1.18668800e-01
        2 -1    0    0  501    0 +0.0000000000e+00 +0.0000000000e+00 +1.1161557352e+03 1.1161557352e+03 2.5500000000e-03 0.0000e+00 -1.0000e+00
       21 -1    0    0  502  503 +0.0000000000e+00 +0.0000000000e+00 -1.9738554759e+02 1.9738554759e+02 0.0000000000e+00 0.0000e+00 -1.0000e+00
  8000001  2    1    2  502    0 +4.7096731078e+01 -5.6318001217e+01 +3.1111857192e+02 6.7984143019e+02 5.9999982089e+02 0.0000e+00 0.0000e+00
        1  1    1    2  501    0 -4.3586808066e+01 +5.7950490437e+01 +6.1771134313e+02 6.2195287011e+02 5.0400000000e-03 0.0000e+00 -1.0000e+00
       -5  1    1    2    0  503 -3.5099230124e+00 -1.6324892198e+00 -1.0059727443e+01 1.1746982487e+01 4.6700000000e+00 0.0000e+00 -1.0000e+00
        6  2    3    3  502    0 -2.1944894512e+02 -7.9826528857e+01 +2.6531625992e+02 3.9359025495e+02 1.7317752968e+02 0.0000e+00 0.0000e+00
        5  1    6    6  502    0 -1.7217517386e+02 -4.6482963463e+01 +2.2968530530e+02 2.9083002726e+02 4.6700000000e+00 0.0000e+00 -1.0000e+00
       24  2    6    6    0    0 -4.7273771257e+01 -3.3343565394e+01 +3.5630954621e+01 1.0276022768e+02 7.7094076712e+01 0.0000e+00 0.0000e+00
       16  1    8    8    0    0 +1.6749798275e+01 -1.7877043657e+01 -5.4722645614e+00 2.5101595797e+01 0.0000000000e+00 0.0000e+00 -1.0000e+00
      -15  1    8    8    0    0 -6.4023569532e+01 -1.5466521737e+01 +4.1103219183e+01 7.7658631885e+01 1.7770000000e+00 0.0000e+00 1.0000e+00
       23  2    3    3    0    0 +2.6654567619e+02 +2.3508527641e+01 +4.5802311999e+01 2.8625117525e+02 9.0788959546e+01 0.0000e+00 0.0000e+00
        4  1   11   11  504    0 +1.9121156577e+02 +1.6554727978e+01 +7.3717354995e+01 2.0560102926e+02 1.2700000000e+00 0.0000e+00 -1.0000e+00
       -4  1   11   11    0  504 +7.5334110420e+01 +6.9537996627e+00 -2.7915042996e+01 8.0650145989e+01 1.2700000000e+00 0.0000e+00 1.0000e+00
<mgrwt>
<rscale>  1 0.66264440e+02</rscale>
<asrwt>0</asrwt>
<pdfrwt beam="1">  1       21 0.30367008e-01 0.60547053e+02</pdfrwt>
<pdfrwt beam="2">  1        2 0.17171626e+00 0.72521714e+02</pdfrwt>
<totfact> 0.37858034e+03</totfact>
</mgrwt>
<rwgt>
<wgt id='1001'> +3.9556008E-01 </wgt>
<wgt id='1002'> +2.4619365E-01 </wgt>
<wgt id='1003'> +2.4604747E-01 </wgt>
<wgt id='1004'> +2.8267593E-01 </wgt>
<wgt id='1005'> +2.2709121E-01 </wgt>
<wgt id='1006'> +3.5457851E-01 </wgt>
<wgt id='1007'> +2.2729537E-01 </wgt>
<wgt id='1008'> +2.2716717E-01 </wgt>
<wgt id='1009'> +2.5909055E-01 </wgt>
<wgt id='1010'> +2.1047687E-01 </wgt>
<wgt id='1011'> +4.4769130E-01 </wgt>
<wgt id='1012'> +2.6861453E-01 </wgt>
<wgt id='1013'> +2.6844553E-01 </wgt>
<wgt id='1014'> +3.1112607E-01 </wgt>
<wgt id='1015'> +2.4662586E-01 </wgt>
<wgt id='1016'> +3.7650703E-01 </wgt>
<wgt id='1017'> +2.3411641E-01 </wgt>
<wgt id='1018'> +2.3397804E-01 </wgt>
<wgt id='1019'> +2.6844553E-01 </wgt>
<wgt id='1020'> +2.1606276E-01 </wgt>
<wgt id='1021'> +3.3749942E-01 </wgt>
<wgt id='1022'> +2.1614520E-01 </wgt>
<wgt id='1023'> +2.1602388E-01 </wgt>
<wgt id='1024'> +2.4604747E-01 </wgt>
<wgt id='1025'> +2.0025528E-01 </wgt>
<wgt id='1026'> +4.2612723E-01 </wgt>
<wgt id='1027'> +2.5543741E-01 </wgt>
<wgt id='1028'> +2.5527740E-01 </wgt>
<wgt id='1029'> +2.9546344E-01 </wgt>
<wgt id='1030'> +2.3464874E-01 </wgt>
<wgt id='1031'> +4.1397734E-01 </wgt>
<wgt id='1032'> +2.5924622E-01 </wgt>
<wgt id='1033'> +2.5909055E-01 </wgt>
<wgt id='1034'> +2.9763729E-01 </wgt>
<wgt id='1035'> +2.3892967E-01 </wgt>
<wgt id='1036'> +3.7108766E-01 </wgt>
<wgt id='1037'> +2.3934600E-01 </wgt>
<wgt id='1038'> +2.3920939E-01 </wgt>
<wgt id='1039'> +2.7280359E-01 </wgt>
<wgt id='1040'> +2.2144922E-01 </wgt>
<wgt id='1041'> +4.6853579E-01 </wgt>
<wgt id='1042'> +2.8285580E-01 </wgt>
<wgt id='1043'> +2.8267593E-01 </wgt>
<wgt id='1044'> +3.2759322E-01 </wgt>
<wgt id='1045'> +2.5948269E-01 </wgt>
<wgt id='1046'> +3.9556008E-01 </wgt>
<wgt id='1047'> +3.9556008E-01 </wgt>
<wgt id='1048'> +3.9556008E-01 </wgt>
<wgt id='1049'> +3.9617198E-01 </wgt>
<wgt id='1050'> +3.9512786E-01 </wgt>
<wgt id='1051'> +3.9577572E-01 </wgt>
<wgt id='1052'> +3.9498263E-01 </wgt>
<wgt id='1053'> +3.9771097E-01 </wgt>
<wgt id='1054'> +3.9526040E-01 </wgt>
<wgt id='1055'> +3.9650931E-01 </wgt>
<wgt id='1056'> +3.9676229E-01 </wgt>
<wgt id='1057'> +3.9559656E-01 </wgt>
<wgt id='1058'> +3.9525264E-01 </wgt>
<wgt id='1059'> +3.9393904E-01 </wgt>
<wgt id='1060'> +3.9540362E-01 </wgt>
<wgt id='1061'> +3.9538805E-01 </wgt>
<wgt id='1062'> +3.9613784E-01 </wgt>
<wgt id='1063'> +3.9565809E-01 </wgt>
<wgt id='1064'> +3.9570799E-01 </wgt>
<wgt id='1065'> +3.9507015E-01 </wgt>
<wgt id='1066'> +3.9534437E-01 </wgt>
<wgt id='1067'> +3.9743200E-01 </wgt>
<wgt id='1068'> +3.9355849E-01 </wgt>
<wgt id='1069'> +3.9556917E-01 </wgt>
<wgt id='1070'> +3.9535587E-01 </wgt>
<wgt id='1071'> +3.9552560E-01 </wgt>
<wgt id='1072'> +3.9635933E-01 </wgt>
<wgt id='1073'> +3.9513221E-01 </wgt>
<wgt id='1074'> +3.9554309E-01 </wgt>
<wgt id='1075'> +3.9427547E-01 </wgt>
<wgt id='1076'> +3.9640852E-01 </wgt>
<wgt id='1077'> +3.9706049E-01 </wgt>
<wgt id='1078'> +3.9563180E-01 </wgt>
<wgt id='1079'> +3.9772020E-01 </wgt>
<wgt id='1080'> +3.9590442E-01 </wgt>
<wgt id='1081'> +3.9591645E-01 </wgt>
<wgt id='1082'> +3.9629983E-01 </wgt>
<wgt id='1083'> +3.9531968E-01 </wgt>
<wgt id='1084'> +3.9479974E-01 </wgt>
<wgt id='1085'> +3.9687524E-01 </wgt>
<wgt id='1086'> +3.9494943E-01 </wgt>
<wgt id='1087'> +3.9545216E-01 </wgt>
<wgt id='1088'> +3.9636639E-01 </wgt>
<wgt id='1089'> +3.9651389E-01 </wgt>
<wgt id='1090'> +3.9589174E-01 </wgt>
<wgt id='1091'> +3.9543750E-01 </wgt>
<wgt id='1092'> +3.9463327E-01 </wgt>
<wgt id='1093'> +3.9531038E-01 </wgt>
<wgt id='1094'> +3.9530877E-01 </wgt>
<wgt id='1095'> +3.9497259E-01 </wgt>
<wgt id='1096'> +3.9448784E-01 </wgt>
<wgt id='1097'> +3.9554700E-01 </wgt>
<wgt id='1098'> +3.9526509E-01 </wgt>
<wgt id='1099'> +3.9537742E-01 </wgt>
<wgt id='1100'> +3.9568762E-01 </wgt>
<wgt id='1101'> +3.9551586E-01 </wgt>
<wgt id='1102'> +3.9599429E-01 </wgt>
<wgt id='1103'> +3.9583503E-01 </wgt>
<wgt id='1104'> +3.9593433E-01 </wgt>
<wgt id='1105'> +3.9597128E-01 </wgt>
<wgt id='1106'> +3.9554175E-01 </wgt>
<wgt id='1107'> +3.9594653E-01 </wgt>
<wgt id='1108'> +3.9553300E-01 </wgt>
<wgt id='1109'> +3.9579114E-01 </wgt>
<wgt id='1110'> +3.9543556E-01 </wgt>
<wgt id='1111'> +3.9540678E-01 </wgt>
<wgt id='1112'> +3.9553241E-01 </wgt>
<wgt id='1113'> +3.9579011E-01 </wgt>
<wgt id='1114'> +3.9503922E-01 </wgt>
<wgt id='1115'> +3.9566061E-01 </wgt>
<wgt id='1116'> +3.9538416E-01 </wgt>
<wgt id='1117'> +3.9559292E-01 </wgt>
<wgt id='1118'> +3.9524331E-01 </wgt>
<wgt id='1119'> +3.9546232E-01 </wgt>
<wgt id='1120'> +3.9557592E-01 </wgt>
<wgt id='1121'> +3.9582571E-01 </wgt>
<wgt id='1122'> +3.9537882E-01 </wgt>
<wgt id='1123'> +3.9561345E-01 </wgt>
<wgt id='1124'> +3.9571539E-01 </wgt>
<wgt id='1125'> +3.9568239E-01 </wgt>
<wgt id='1126'> +3.9559021E-01 </wgt>
<wgt id='1127'> +3.9595559E-01 </wgt>
<wgt id='1128'> +3.9560578E-01 </wgt>
<wgt id='1129'> +3.9558215E-01 </wgt>
<wgt id='1130'> +3.9574786E-01 </wgt>
<wgt id='1131'> +3.9562969E-01 </wgt>
<wgt id='1132'> +3.9577924E-01 </wgt>
<wgt id='1133'> +3.9569722E-01 </wgt>
<wgt id='1134'> +3.9519179E-01 </wgt>
<wgt id='1135'> +3.9563536E-01 </wgt>
<wgt id='1136'> +3.9539119E-01 </wgt>
<wgt id='1137'> +3.9557829E-01 </wgt>
<wgt id='1138'> +3.9579903E-01 </wgt>
<wgt id='1139'> +3.9551718E-01 </wgt>
<wgt id='1140'> +3.9579135E-01 </wgt>
<wgt id='1141'> +3.9552985E-01 </wgt>
<wgt id='1142'> +3.9560713E-01 </wgt>
<wgt id='1143'> +3.9573518E-01 </wgt>
<wgt id='1144'> +3.9551474E-01 </wgt>
<wgt id='1145'> +3.9556166E-01 </wgt>
<wgt id='1146'> +3.9553876E-01 </wgt>
<wgt id='1147'> +3.9568088E-01 </wgt>
<wgt id='1148'> +3.9556008E-01 </wgt>
<wgt id='1149'> +3.9697382E-01 </wgt>
<wgt id='1150'> +3.9696993E-01 </wgt>
<wgt id='1151'> +4.0148126E-01 </wgt>
<wgt id='1152'> +4.0277114E-01 </wgt>
<wgt id='1153'> +3.9455188E-01 </wgt>
<wgt id='1154'> +3.9572226E-01 </wgt>
<wgt id='1155'> +3.9792996E-01 </wgt>
<wgt id='1156'> +4.0265678E-01 </wgt>
<wgt id='1157'> +3.9959088E-01 </wgt>
<wgt id='1158'> +4.0072812E-01 </wgt>
<wgt id='1159'> +3.7869812E-01 </wgt>
<wgt id='1160'> +3.9964469E-01 </wgt>
<wgt id='1161'> +3.9627906E-01 </wgt>
<wgt id='1162'> +3.9129298E-01 </wgt>
<wgt id='1163'> +4.0240063E-01 </wgt>
<wgt id='1164'> +4.0620159E-01 </wgt>
<wgt id='1165'> +3.9894978E-01 </wgt>
<wgt id='1166'> +3.9684873E-01 </wgt>
<wgt id='1167'> +3.9966955E-01 </wgt>
<wgt id='1168'> +3.9707352E-01 </wgt>
<wgt id='1169'> +3.9288436E-01 </wgt>
<wgt id='1170'> +3.9995917E-01 </wgt>
<wgt id='1171'> +3.9888089E-01 </wgt>
<wgt id='1172'> +3.9856625E-01 </wgt>
<wgt id='1173'> +3.8973467E-01 </wgt>
<wgt id='1174'> +4.0094780E-01 </wgt>
<wgt id='1175'> +4.0715524E-01 </wgt>
<wgt id='1176'> +3.7950119E-01 </wgt>
<wgt id='1177'> +4.0077109E-01 </wgt>
<wgt id='1178'> +3.9752881E-01 </wgt>
<wgt id='1179'> +3.9920116E-01 </wgt>
<wgt id='1180'> +3.9749146E-01 </wgt>
<wgt id='1181'> +3.9958750E-01 </wgt>
<wgt id='1182'> +3.9924585E-01 </wgt>
<wgt id='1183'> +3.8842356E-01 </wgt>
<wgt id='1184'> +3.9824738E-01 </wgt>
<wgt id='1185'> +4.0041623E-01 </wgt>
<wgt id='1186'> +3.9995825E-01 </wgt>
<wgt id='1187'> +3.9598280E-01 </wgt>
<wgt id='1188'> +3.9974680E-01 </wgt>
<wgt id='1189'> +3.9926026E-01 </wgt>
<wgt id='1190'> +3.9927997E-01 </wgt>
<wgt id='1191'> +3.9294596E-01 </wgt>
<wgt id='1192'> +3.8995708E-01 </wgt>
<wgt id='1193'> +3.9252120E-01 </wgt>
<wgt id='1194'> +4.0422467E-01 </wgt>
<wgt id='1195'> +3.9672481E-01 </wgt>
<wgt id='1196'> +3.9217758E-01 </wgt>
<wgt id='1197'> +3.9350380E-01 </wgt>
<wgt id='1198'> +4.0368496E-01 </wgt>
<wgt id='1199'> +3.9176231E-01 </wgt>
<wgt id='1200'> +3.9984482E-01 </wgt>
<wgt id='1201'> +3.9779380E-01 </wgt>
<wgt id='1202'> +3.9903702E-01 </wgt>
<wgt id='1203'> +4.0282890E-01 </wgt>
<wgt id='1204'> +3.9915357E-01 </wgt>
<wgt id='1205'> +3.9226789E-01 </wgt>
<wgt id='1206'> +3.9705921E-01 </wgt>
<wgt id='1207'> +3.9861882E-01 </wgt>
<wgt id='1208'> +4.0726354E-01 </wgt>
<wgt id='1209'> +4.0436978E-01 </wgt>
<wgt id='1210'> +3.8960545E-01 </wgt>
<wgt id='1211'> +3.9524488E-01 </wgt>
<wgt id='1212'> +3.8882051E-01 </wgt>
<wgt id='1213'> +4.0076614E-01 </wgt>
<wgt id='1214'> +3.9803426E-01 </wgt>
<wgt id='1215'> +4.0539395E-01 </wgt>
<wgt id='1216'> +3.9478364E-01 </wgt>
<wgt id='1217'> +3.9611224E-01 </wgt>
<wgt id='1218'> +3.9547308E-01 </wgt>
<wgt id='1219'> +3.8760621E-01 </wgt>
<wgt id='1220'> +4.0374327E-01 </wgt>
<wgt id='1221'> +3.9220011E-01 </wgt>
<wgt id='1222'> +3.9836038E-01 </wgt>
<wgt id='1223'> +3.9793714E-01 </wgt>
<wgt id='1224'> +3.9564930E-01 </wgt>
<wgt id='1225'> +4.0417890E-01 </wgt>
<wgt id='1226'> +3.8525872E-01 </wgt>
<wgt id='1227'> +4.0962168E-01 </wgt>
<wgt id='1228'> +3.9730667E-01 </wgt>
<wgt id='1229'> +3.8769212E-01 </wgt>
<wgt id='1230'> +3.9046439E-01 </wgt>
<wgt id='1231'> +3.9894978E-01 </wgt>
<wgt id='1232'> +3.8566551E-01 </wgt>
<wgt id='1233'> +3.9744806E-01 </wgt>
<wgt id='1234'> +4.0999710E-01 </wgt>
<wgt id='1235'> +3.8511362E-01 </wgt>
<wgt id='1236'> +4.0419442E-01 </wgt>
<wgt id='1237'> +3.8781288E-01 </wgt>
<wgt id='1238'> +3.8609448E-01 </wgt>
<wgt id='1239'> +3.9786062E-01 </wgt>
<wgt id='1240'> +4.0077056E-01 </wgt>
<wgt id='1241'> +3.9982140E-01 </wgt>
<wgt id='1242'> +3.9759678E-01 </wgt>
<wgt id='1243'> +3.9170893E-01 </wgt>
<wgt id='1244'> +3.9184147E-01 </wgt>
<wgt id='1245'> +4.0153759E-01 </wgt>
<wgt id='1246'> +3.8730059E-01 </wgt>
<wgt id='1247'> +3.9894637E-01 </wgt>
<wgt id='1248'> +4.0056317E-01 </wgt>
<wgt id='1249'> +4.0048005E-01 </wgt>
<wgt id='1250'> +3.8377425E-01 </wgt>
<wgt id='1251'> +3.8108512E-01 </wgt>
<wgt id='1252'> +3.9008668E-01 </wgt>
<wgt id='1253'> +3.8753473E-01 </wgt>
<wgt id='1254'> +3.3738495E-01 </wgt>
<wgt id='1255'> +3.9395954E-01 </wgt>
<wgt id='1256'> +3.9583658E-01 </wgt>
<wgt id='1257'> +3.9287569E-01 </wgt>
<wgt id='1258'> +3.9323608E-01 </wgt>
<wgt id='1259'> +3.9433360E-01 </wgt>
<wgt id='1260'> +3.9451695E-01 </wgt>
<wgt id='1261'> +3.9319679E-01 </wgt>
<wgt id='1262'> +3.9438809E-01 </wgt>
<wgt id='1263'> +3.9368320E-01 </wgt>
<wgt id='1264'> +3.9355510E-01 </wgt>
<wgt id='1265'> +3.9424646E-01 </wgt>
<wgt id='1266'> +3.9416143E-01 </wgt>
<wgt id='1267'> +3.9376687E-01 </wgt>
<wgt id='1268'> +3.9714157E-01 </wgt>
<wgt id='1269'> +3.9078058E-01 </wgt>
<wgt id='1270'> +3.9397333E-01 </wgt>
<wgt id='1271'> +3.9341258E-01 </wgt>
<wgt id='1272'> +3.9430828E-01 </wgt>
<wgt id='1273'> +3.9368476E-01 </wgt>
<wgt id='1274'> +3.9350489E-01 </wgt>
<wgt id='1275'> +3.9455952E-01 </wgt>
<wgt id='1276'> +3.9249154E-01 </wgt>
<wgt id='1277'> +3.9548282E-01 </wgt>
<wgt id='1278'> +3.9198047E-01 </wgt>
<wgt id='1279'> +3.9550791E-01 </wgt>
<wgt id='1280'> +3.9338917E-01 </wgt>
<wgt id='1281'> +3.9535536E-01 </wgt>
<wgt id='1282'> +3.9666424E-01 </wgt>
<wgt id='1283'> +3.9073666E-01 </wgt>
<wgt id='1284'> +3.9279414E-01 </wgt>
<wgt id='1285'> +3.9482196E-01 </wgt>
<wgt id='1286'> +3.9455191E-01 </wgt>
<wgt id='1287'> +3.9393047E-01 </wgt>
<wgt id='1288'> +3.9373191E-01 </wgt>
<wgt id='1289'> +3.9398778E-01 </wgt>
<wgt id='1290'> +3.9457041E-01 </wgt>
<wgt id='1291'> +3.9374735E-01 </wgt>
<wgt id='1292'> +3.9512580E-01 </wgt>
<wgt id='1293'> +3.9180609E-01 </wgt>
<wgt id='1294'> +3.9146183E-01 </wgt>
<wgt id='1295'> +3.9450284E-01 </wgt>
<wgt id='1296'> +3.8972582E-01 </wgt>
<wgt id='1297'> +3.9067501E-01 </wgt>
<wgt id='1298'> +3.8895198E-01 </wgt>
<wgt id='1299'> +3.8902226E-01 </wgt>
<wgt id='1300'> +3.9050849E-01 </wgt>
<wgt id='1301'> +3.8896971E-01 </wgt>
<wgt id='1302'> +3.9085685E-01 </wgt>
<wgt id='1303'> +3.8917264E-01 </wgt>
<wgt id='1304'> +3.9009972E-01 </wgt>
<wgt id='1305'> +3.8994983E-01 </wgt>
<wgt id='1306'> +3.8941031E-01 </wgt>
<wgt id='1307'> +3.9083792E-01 </wgt>
<wgt id='1308'> +3.8901634E-01 </wgt>
<wgt id='1309'> +3.9021167E-01 </wgt>
<wgt id='1310'> +3.8906650E-01 </wgt>
<wgt id='1311'> +3.9284616E-01 </wgt>
<wgt id='1312'> +3.8859684E-01 </wgt>
<wgt id='1313'> +3.9103165E-01 </wgt>
<wgt id='1314'> +3.8788652E-01 </wgt>
<wgt id='1315'> +3.8952221E-01 </wgt>
<wgt id='1316'> +3.8991518E-01 </wgt>
<wgt id='1317'> +3.8738754E-01 </wgt>
<wgt id='1318'> +3.9398191E-01 </wgt>
<wgt id='1319'> +3.9182455E-01 </wgt>
<wgt id='1320'> +3.8849962E-01 </wgt>
<wgt id='1321'> +3.8883531E-01 </wgt>
<wgt id='1322'> +3.9016873E-01 </wgt>
<wgt id='1323'> +3.8948743E-01 </wgt>
<wgt id='1324'> +3.9002510E-01 </wgt>
<wgt id='1325'> +3.8982632E-01 </wgt>
<wgt id='1326'> +3.8962960E-01 </wgt>
<wgt id='1327'> +3.9018277E-01 </wgt>
<wgt id='1328'> +3.8957058E-01 </wgt>
<wgt id='1329'> +3.9000814E-01 </wgt>
<wgt id='1330'> +3.8956686E-01 </wgt>
<wgt id='1331'> +3.8895293E-01 </wgt>
<wgt id='1332'> +3.9038374E-01 </wgt>
<wgt id='1333'> +3.9157955E-01 </wgt>
<wgt id='1334'> +3.8630511E-01 </wgt>
<wgt id='1335'> +3.9045331E-01 </wgt>
<wgt id='1336'> +3.8954020E-01 </wgt>
<wgt id='1337'> +3.8972582E-01 </wgt>
<wgt id='1338'> +3.8938911E-01 </wgt>
<wgt id='1339'> +3.8953991E-01 </wgt>
<wgt id='1340'> +3.8967024E-01 </wgt>
<wgt id='1341'> +3.8988243E-01 </wgt>
<wgt id='1342'> +3.8998261E-01 </wgt>
<wgt id='1343'> +3.9003561E-01 </wgt>
<wgt id='1344'> +3.8703742E-01 </wgt>
<wgt id='1345'> +3.8823155E-01 </wgt>
<wgt id='1346'> +3.8584031E-01 </wgt>
<wgt id='1347'> +3.8847394E-01 </wgt>
<wgt id='1348'> +3.8595971E-01 </wgt>
<wgt id='1349'> +3.8626338E-01 </wgt>
<wgt id='1350'> +3.8769051E-01 </wgt>
<wgt id='1351'> +3.8703192E-01 </wgt>
<wgt id='1352'> +3.8702818E-01 </wgt>
<wgt id='1353'> +3.8781186E-01 </wgt>
<wgt id='1354'> +3.8648589E-01 </wgt>
<wgt id='1355'> +3.8623112E-01 </wgt>
<wgt id='1356'> +3.8765326E-01 </wgt>
<wgt id='1357'> +3.8663088E-01 </wgt>
<wgt id='1358'> +3.8726427E-01 </wgt>
<wgt id='1359'> +3.8582376E-01 </wgt>
<wgt id='1360'> +3.9005123E-01 </wgt>
<wgt id='1361'> +3.9042028E-01 </wgt>
<wgt id='1362'> +3.8449896E-01 </wgt>
<wgt id='1363'> +3.8764336E-01 </wgt>
<wgt id='1364'> +3.8632690E-01 </wgt>
<wgt id='1365'> +3.8809408E-01 </wgt>
<wgt id='1366'> +3.8662298E-01 </wgt>
<wgt id='1367'> +3.8561648E-01 </wgt>
<wgt id='1368'> +3.8770387E-01 </wgt>
<wgt id='1369'> +3.8599944E-01 </wgt>
<wgt id='1370'> +3.8796762E-01 </wgt>
<wgt id='1371'> +3.8732480E-01 </wgt>
<wgt id='1372'> +3.8684777E-01 </wgt>
<wgt id='1373'> +3.8784186E-01 </wgt>
<wgt id='1374'> +3.8651413E-01 </wgt>
<wgt id='1375'> +3.8776708E-01 </wgt>
<wgt id='1376'> +3.8682683E-01 </wgt>
<wgt id='1377'> +3.8708063E-01 </wgt>
<wgt id='1378'> +3.8694686E-01 </wgt>
<wgt id='1379'> +3.8824559E-01 </wgt>
<wgt id='1380'> +3.8620373E-01 </wgt>
<wgt id='1381'> +3.8581537E-01 </wgt>
<wgt id='1382'> +3.8609612E-01 </wgt>
<wgt id='1383'> +3.8693074E-01 </wgt>
<wgt id='1384'> +3.8732567E-01 </wgt>
<wgt id='1385'> +3.8703742E-01 </wgt>
<wgt id='1386'> +3.8646974E-01 </wgt>
<wgt id='1387'> +3.8668514E-01 </wgt>
<wgt id='1388'> +3.8686992E-01 </wgt>
<wgt id='1389'> +3.8714504E-01 </wgt>
<wgt id='1390'> +3.8728016E-01 </wgt>
<wgt id='1391'> +3.8734057E-01 </wgt>
<wgt id='1392'> +4.0457683E-01 </wgt>
<wgt id='1393'> +4.0458282E-01 </wgt>
<wgt id='1394'> +4.0455963E-01 </wgt>
<wgt id='1395'> +4.0490368E-01 </wgt>
<wgt id='1396'> +4.0434329E-01 </wgt>
<wgt id='1397'> +4.0592051E-01 </wgt>
<wgt id='1398'> +4.0327343E-01 </wgt>
<wgt id='1399'> +4.0515624E-01 </wgt>
<wgt id='1400'> +4.0385384E-01 </wgt>
<wgt id='1401'> +4.0349319E-01 </wgt>
<wgt id='1402'> +4.0590670E-01 </wgt>
<wgt id='1403'> +4.0454608E-01 </wgt>
<wgt id='1404'> +4.0462485E-01 </wgt>
<wgt id='1405'> +4.0391818E-01 </wgt>
<wgt id='1406'> +4.0550127E-01 </wgt>
<wgt id='1407'> +4.0413340E-01 </wgt>
<wgt id='1408'> +4.0487952E-01 </wgt>
<wgt id='1409'> +4.0626687E-01 </wgt>
<wgt id='1410'> +4.0262343E-01 </wgt>
<wgt id='1411'> +4.0409583E-01 </wgt>
<wgt id='1412'> +4.0494029E-01 </wgt>
<wgt id='1413'> +4.0533906E-01 </wgt>
<wgt id='1414'> +4.0378467E-01 </wgt>
<wgt id='1415'> +4.0669220E-01 </wgt>
<wgt id='1416'> +4.0241040E-01 </wgt>
<wgt id='1417'> +4.0497456E-01 </wgt>
<wgt id='1418'> +4.0406342E-01 </wgt>
<wgt id='1419'> +4.0508471E-01 </wgt>
<wgt id='1420'> +4.0429741E-01 </wgt>
<wgt id='1421'> +4.0674228E-01 </wgt>
<wgt id='1422'> +4.0215563E-01 </wgt>
<wgt id='1423'> +4.0573794E-01 </wgt>
<wgt id='1424'> +4.0342663E-01 </wgt>
<wgt id='1425'> +4.0485227E-01 </wgt>
<wgt id='1426'> +4.0423919E-01 </wgt>
<wgt id='1427'> +4.0389910E-01 </wgt>
<wgt id='1428'> +4.0396182E-01 </wgt>
<wgt id='1429'> +4.0412242E-01 </wgt>
<wgt id='1430'> +4.0504425E-01 </wgt>
<wgt id='1431'> +4.0423217E-01 </wgt>
<wgt id='1432'> +4.0476855E-01 </wgt>
<wgt id='1433'> +4.0297545E-01 </wgt>
<wgt id='1434'> +4.0624480E-01 </wgt>
<wgt id='1435'> +4.0498852E-01 </wgt>
<wgt id='1436'> +4.0439979E-01 </wgt>
<wgt id='1437'> +4.0394961E-01 </wgt>
<wgt id='1438'> +4.0607162E-01 </wgt>
<wgt id='1439'> +4.0621247E-01 </wgt>
<wgt id='1440'> +4.0072230E-01 </wgt>
<wgt id='1441'> +4.0529019E-01 </wgt>
<wgt id='1442'> +4.0503818E-01 </wgt>
<wgt id='1443'> +4.0042307E-01 </wgt>
<wgt id='1444'> +4.0044442E-01 </wgt>
<wgt id='1445'> +4.0040431E-01 </wgt>
<wgt id='1446'> +4.0076558E-01 </wgt>
<wgt id='1447'> +4.0020479E-01 </wgt>
<wgt id='1448'> +4.0183704E-01 </wgt>
<wgt id='1449'> +3.9910728E-01 </wgt>
<wgt id='1450'> +4.0095513E-01 </wgt>
<wgt id='1451'> +3.9983229E-01 </wgt>
<wgt id='1452'> +3.9933000E-01 </wgt>
<wgt id='1453'> +4.0148591E-01 </wgt>
<wgt id='1454'> +4.0031118E-01 </wgt>
<wgt id='1455'> +4.0067855E-01 </wgt>
<wgt id='1456'> +3.9961155E-01 </wgt>
<wgt id='1457'> +4.0189179E-01 </wgt>
<wgt id='1458'> +4.0009187E-01 </wgt>
<wgt id='1459'> +4.0061585E-01 </wgt>
<wgt id='1460'> +4.0203010E-01 </wgt>
<wgt id='1461'> +3.9849983E-01 </wgt>
<wgt id='1462'> +3.9959141E-01 </wgt>
<wgt id='1463'> +4.0114296E-01 </wgt>
<wgt id='1464'> +4.0114154E-01 </wgt>
<wgt id='1465'> +3.9949303E-01 </wgt>
<wgt id='1466'> +4.0312569E-01 </wgt>
<wgt id='1467'> +3.9856559E-01 </wgt>
<wgt id='1468'> +3.9932368E-01 </wgt>
<wgt id='1469'> +4.0155894E-01 </wgt>
<wgt id='1470'> +4.0096230E-01 </wgt>
<wgt id='1471'> +4.0018691E-01 </wgt>
<wgt id='1472'> +4.0218601E-01 </wgt>
<wgt id='1473'> +3.9837872E-01 </wgt>
<wgt id='1474'> +4.0135263E-01 </wgt>
<wgt id='1475'> +3.9910527E-01 </wgt>
<wgt id='1476'> +4.0069021E-01 </wgt>
<wgt id='1477'> +4.0014997E-01 </wgt>
<wgt id='1478'> +3.9982854E-01 </wgt>
<wgt id='1479'> +3.9982890E-01 </wgt>
<wgt id='1480'> +4.0011248E-01 </wgt>
<wgt id='1481'> +4.0080606E-01 </wgt>
<wgt id='1482'> +4.0005589E-01 </wgt>
<wgt id='1483'> +4.0068433E-01 </wgt>
<wgt id='1484'> +3.9887121E-01 </wgt>
<wgt id='1485'> +4.0206600E-01 </wgt>
<wgt id='1486'> +4.0103256E-01 </wgt>
<wgt id='1487'> +4.0007985E-01 </wgt>
<wgt id='1488'> +3.9976516E-01 </wgt>
<wgt id='1489'> +4.0193604E-01 </wgt>
<wgt id='1490'> +4.0279890E-01 </wgt>
<wgt id='1491'> +3.9620870E-01 </wgt>
<wgt id='1492'> +4.0162759E-01 </wgt>
<wgt id='1493'> +4.0083762E-01 </wgt>
<wgt id='1494'> +3.8780512E-01 </wgt>
<wgt id='1495'> +3.8222885E-01 </wgt>
<wgt id='1496'> +3.8416431E-01 </wgt>
<wgt id='1497'> +3.8605152E-01 </wgt>
<wgt id='1498'> +3.8925473E-01 </wgt>
<wgt id='1499'> +3.8768909E-01 </wgt>
<wgt id='1500'> +3.8978684E-01 </wgt>
<wgt id='1501'> +3.8940495E-01 </wgt>
<wgt id='1502'> +3.8899318E-01 </wgt>
<wgt id='1503'> +3.8858147E-01 </wgt>
<wgt id='1504'> +3.8815780E-01 </wgt>
<wgt id='1505'> +3.8730135E-01 </wgt>
<wgt id='1506'> +3.8686367E-01 </wgt>
<wgt id='1507'> +3.8644461E-01 </wgt>
<wgt id='1508'> +3.8768909E-01 </wgt>
<wgt id='1509'> +3.8766189E-01 </wgt>
<wgt id='1510'> +3.8767335E-01 </wgt>
<wgt id='1511'> +3.8771978E-01 </wgt>
<wgt id='1512'> +3.8773173E-01 </wgt>
<wgt id='1513'> +3.8774111E-01 </wgt>
<wgt id='1514'> +3.8757009E-01 </wgt>
<wgt id='1515'> +3.8797159E-01 </wgt>
<wgt id='1516'> +3.8840050E-01 </wgt>
<wgt id='1517'> +3.8709948E-01 </wgt>
<wgt id='1518'> +3.8858776E-01 </wgt>
<wgt id='1519'> +3.8740605E-01 </wgt>
<wgt id='1520'> +3.8892856E-01 </wgt>
<wgt id='1521'> +3.8655745E-01 </wgt>
<wgt id='1522'> +3.8716578E-01 </wgt>
<wgt id='1523'> +3.8830685E-01 </wgt>
<wgt id='1524'> +3.8877199E-01 </wgt>
<wgt id='1525'> +3.8729789E-01 </wgt>
<wgt id='1526'> +3.8762102E-01 </wgt>
<wgt id='1527'> +3.8790165E-01 </wgt>
<wgt id='1528'> +3.8694277E-01 </wgt>
<wgt id='1529'> +3.8861332E-01 </wgt>
<wgt id='1530'> +3.9048341E-01 </wgt>
<wgt id='1531'> +3.8620348E-01 </wgt>
<wgt id='1532'> +3.8915561E-01 </wgt>
<wgt id='1533'> +3.8581852E-01 </wgt>
<wgt id='1534'> +3.8674066E-01 </wgt>
<wgt id='1535'> +3.8845890E-01 </wgt>
<wgt id='1536'> +3.8772640E-01 </wgt>
<wgt id='1537'> +3.8780404E-01 </wgt>
<wgt id='1538'> +3.8707551E-01 </wgt>
<wgt id='1539'> +3.8931755E-01 </wgt>
<wgt id='1540'> +3.8791976E-01 </wgt>
<wgt id='1541'> +3.8759011E-01 </wgt>
<wgt id='1542'> +3.8644807E-01 </wgt>
<wgt id='1543'> +3.9143719E-01 </wgt>
<wgt id='1544'> +3.8777771E-01 </wgt>
<wgt id='1545'> +3.8699169E-01 </wgt>
<wgt id='1546'> +3.8688294E-01 </wgt>
<wgt id='1547'> +3.8861797E-01 </wgt>
<wgt id='1548'> +3.8770227E-01 </wgt>
<wgt id='1549'> +3.8702567E-01 </wgt>
<wgt id='1550'> +3.8789095E-01 </wgt>
<wgt id='1551'> +3.8741678E-01 </wgt>
<wgt id='1552'> +3.8726688E-01 </wgt>
<wgt id='1553'> +3.8793676E-01 </wgt>
<wgt id='1554'> +3.8803057E-01 </wgt>
<wgt id='1555'> +3.8623394E-01 </wgt>
<wgt id='1556'> +3.8828313E-01 </wgt>
<wgt id='1557'> +3.8717678E-01 </wgt>
<wgt id='1558'> +3.8513380E-01 </wgt>
<wgt id='1559'> +3.8902363E-01 </wgt>
<wgt id='1560'> +3.8969376E-01 </wgt>
<wgt id='1561'> +3.8678299E-01 </wgt>
<wgt id='1562'> +3.8601449E-01 </wgt>
<wgt id='1563'> +3.8840145E-01 </wgt>
<wgt id='1564'> +3.8774111E-01 </wgt>
<wgt id='1565'> +3.8595183E-01 </wgt>
<wgt id='1566'> +3.8833527E-01 </wgt>
<wgt id='1567'> +3.8720702E-01 </wgt>
<wgt id='1568'> +3.8925554E-01 </wgt>
<wgt id='1569'> +3.8887396E-01 </wgt>
<wgt id='1570'> +3.8843436E-01 </wgt>
<wgt id='1571'> +3.8800345E-01 </wgt>
<wgt id='1572'> +3.8759496E-01 </wgt>
<wgt id='1573'> +3.8682113E-01 </wgt>
<wgt id='1574'> +3.8620364E-01 </wgt>
<wgt id='1575'> +3.8580797E-01 </wgt>
<wgt id='1576'> +3.8720702E-01 </wgt>
<wgt id='1577'> +3.8708701E-01 </wgt>
<wgt id='1578'> +3.8715665E-01 </wgt>
<wgt id='1579'> +3.8724346E-01 </wgt>
<wgt id='1580'> +3.8728877E-01 </wgt>
<wgt id='1581'> +3.8790900E-01 </wgt>
<wgt id='1582'> +3.8813596E-01 </wgt>
<wgt id='1583'> +3.8929232E-01 </wgt>
<wgt id='1584'> +3.8586418E-01 </wgt>
<wgt id='1585'> +3.8904410E-01 </wgt>
<wgt id='1586'> +3.8538568E-01 </wgt>
<wgt id='1587'> +3.8456213E-01 </wgt>
<wgt id='1588'> +3.9080443E-01 </wgt>
<wgt id='1589'> +3.8766958E-01 </wgt>
<wgt id='1590'> +3.8860793E-01 </wgt>
<wgt id='1591'> +3.8713688E-01 </wgt>
<wgt id='1592'> +3.9003788E-01 </wgt>
<wgt id='1593'> +3.8857298E-01 </wgt>
<wgt id='1594'> +3.8803963E-01 </wgt>
<wgt id='1595'> +3.8745616E-01 </wgt>
<wgt id='1596'> +3.9044373E-01 </wgt>
<wgt id='1597'> +3.8889931E-01 </wgt>
<wgt id='1598'> +3.8785743E-01 </wgt>
<wgt id='1599'> +3.8822357E-01 </wgt>
<wgt id='1600'> +3.8912520E-01 </wgt>
<wgt id='1601'> +3.8731087E-01 </wgt>
<wgt id='1602'> +3.8878133E-01 </wgt>
<wgt id='1603'> +3.8865214E-01 </wgt>
<wgt id='1604'> +3.8820507E-01 </wgt>
<wgt id='1605'> +3.8728120E-01 </wgt>
<wgt id='1606'> +3.8832586E-01 </wgt>
<wgt id='1607'> +3.8826424E-01 </wgt>
<wgt id='1608'> +3.8833300E-01 </wgt>
<wgt id='1609'> +3.8883221E-01 </wgt>
<wgt id='1610'> +3.8741770E-01 </wgt>
<wgt id='1611'> +3.8983544E-01 </wgt>
<wgt id='1612'> +3.9440872E-01 </wgt>
<wgt id='1613'> +3.9415858E-01 </wgt>
<wgt id='1614'> +3.9507821E-01 </wgt>
<wgt id='1615'> +3.9518919E-01 </wgt>
<wgt id='1616'> +3.9414271E-01 </wgt>
<wgt id='1617'> +3.9389544E-01 </wgt>
<wgt id='1618'> +3.9461814E-01 </wgt>
<wgt id='1619'> +3.9263536E-01 </wgt>
<wgt id='1620'> +3.9334000E-01 </wgt>
<wgt id='1621'> +3.9487238E-01 </wgt>
<wgt id='1622'> +3.9520225E-01 </wgt>
<wgt id='1623'> +3.9439023E-01 </wgt>
<wgt id='1624'> +3.9454458E-01 </wgt>
<wgt id='1625'> +3.9558297E-01 </wgt>
<wgt id='1626'> +3.9670350E-01 </wgt>
<wgt id='1627'> +3.9459203E-01 </wgt>
<wgt id='1628'> +3.9434084E-01 </wgt>
<wgt id='1629'> +3.9491954E-01 </wgt>
<wgt id='1630'> +3.9545468E-01 </wgt>
<wgt id='1631'> +3.9470509E-01 </wgt>
<wgt id='1632'> +3.9622629E-01 </wgt>
<wgt id='1633'> +3.9368795E-01 </wgt>
<wgt id='1634'> +3.9622385E-01 </wgt>
<wgt id='1635'> +3.9415986E-01 </wgt>
<wgt id='1636'> +3.9431877E-01 </wgt>
<wgt id='1637'> +3.9579746E-01 </wgt>
<wgt id='1638'> +3.9412967E-01 </wgt>
<wgt id='1639'> +3.9539992E-01 </wgt>
<wgt id='1640'> +3.9490270E-01 </wgt>
<wgt id='1641'> +3.9048686E-01 </wgt>
<wgt id='1642'> +3.9360011E-01 </wgt>
<wgt id='1643'> +3.9426520E-01 </wgt>
<wgt id='1644'> +3.9344868E-01 </wgt>
<wgt id='1645'> +3.9388628E-01 </wgt>
<wgt id='1646'> +3.9475920E-01 </wgt>
<wgt id='1647'> +3.9381509E-01 </wgt>
<wgt id='1648'> +3.9404950E-01 </wgt>
<wgt id='1649'> +3.9480606E-01 </wgt>
<wgt id='1650'> +3.9413334E-01 </wgt>
<wgt id='1651'> +3.9464278E-01 </wgt>
<wgt id='1652'> +3.9401434E-01 </wgt>
<wgt id='1653'> +3.9433425E-01 </wgt>
<wgt id='1654'> +3.9406503E-01 </wgt>
<wgt id='1655'> +3.9503711E-01 </wgt>
<wgt id='1656'> +3.9450426E-01 </wgt>
<wgt id='1657'> +3.9419926E-01 </wgt>
<wgt id='1658'> +3.9490070E-01 </wgt>
<wgt id='1659'> +3.9515670E-01 </wgt>
<wgt id='1660'> +3.9443693E-01 </wgt>
<wgt id='1661'> +3.9448863E-01 </wgt>
<wgt id='1662'> +3.9441220E-01 </wgt>
<wgt id='1663'> +3.9483692E-01 </wgt>
<wgt id='1664'> +3.9449922E-01 </wgt>
<wgt id='1665'> +3.9449889E-01 </wgt>
<wgt id='1666'> +3.9479689E-01 </wgt>
<wgt id='1667'> +3.9412491E-01 </wgt>
<wgt id='1668'> +3.9428205E-01 </wgt>
<wgt id='1669'> +3.9429969E-01 </wgt>
<wgt id='1670'> +3.9384149E-01 </wgt>
<wgt id='1671'> +3.9448817E-01 </wgt>
<wgt id='1672'> +3.9503924E-01 </wgt>
<wgt id='1673'> +3.9460219E-01 </wgt>
<wgt id='1674'> +3.9449090E-01 </wgt>
<wgt id='1675'> +3.9411436E-01 </wgt>
<wgt id='1676'> +3.9395462E-01 </wgt>
<wgt id='1677'> +3.9450603E-01 </wgt>
<wgt id='1678'> +3.9467140E-01 </wgt>
<wgt id='1679'> +3.9476942E-01 </wgt>
<wgt id='1680'> +3.9522273E-01 </wgt>
<wgt id='1681'> +3.9421285E-01 </wgt>
<wgt id='1682'> +3.9419065E-01 </wgt>
<wgt id='1683'> +3.9435470E-01 </wgt>
<wgt id='1684'> +3.9443841E-01 </wgt>
<wgt id='1685'> +3.9433108E-01 </wgt>
<wgt id='1686'> +3.9409516E-01 </wgt>
<wgt id='1687'> +3.9394290E-01 </wgt>
<wgt id='1688'> +3.9410505E-01 </wgt>
<wgt id='1689'> +3.9455574E-01 </wgt>
<wgt id='1690'> +3.9476741E-01 </wgt>
<wgt id='1691'> +3.9429563E-01 </wgt>
<wgt id='1692'> +3.9458918E-01 </wgt>
<wgt id='1693'> +3.9474226E-01 </wgt>
<wgt id='1694'> +3.9470065E-01 </wgt>
<wgt id='1695'> +3.9478297E-01 </wgt>
<wgt id='1696'> +3.9432049E-01 </wgt>
<wgt id='1697'> +3.9446473E-01 </wgt>
<wgt id='1698'> +3.9404866E-01 </wgt>
<wgt id='1699'> +3.9436938E-01 </wgt>
<wgt id='1700'> +3.9405539E-01 </wgt>
<wgt id='1701'> +3.9461723E-01 </wgt>
<wgt id='1702'> +3.9447592E-01 </wgt>
<wgt id='1703'> +3.9423913E-01 </wgt>
<wgt id='1704'> +3.9446057E-01 </wgt>
<wgt id='1705'> +3.9406762E-01 </wgt>
<wgt id='1706'> +3.9435717E-01 </wgt>
<wgt id='1707'> +3.9431318E-01 </wgt>
<wgt id='1708'> +3.9438639E-01 </wgt>
<wgt id='1709'> +3.9457475E-01 </wgt>
<wgt id='1710'> +3.9438868E-01 </wgt>
<wgt id='1711'> +3.9435029E-01 </wgt>
<wgt id='1712'> +3.9436505E-01 </wgt>
<wgt id='1713'> +3.8783818E-01 </wgt>
<wgt id='1714'> +3.9929760E-01 </wgt>
<wgt id='1715'> +3.9705926E-01 </wgt>
<wgt id='1716'> +3.9407981E-01 </wgt>
<wgt id='1717'> +3.9172376E-01 </wgt>
<wgt id='1718'> +3.8916893E-01 </wgt>
<wgt id='1719'> +3.9194320E-01 </wgt>
<wgt id='1720'> +4.0429959E-01 </wgt>
<wgt id='1721'> +3.8266058E-01 </wgt>
<wgt id='1722'> +3.9767348E-01 </wgt>
<wgt id='1723'> +3.9985573E-01 </wgt>
<wgt id='1724'> +3.9950205E-01 </wgt>
<wgt id='1725'> +4.0486200E-01 </wgt>
<wgt id='1726'> +4.0714385E-01 </wgt>
<wgt id='1727'> +3.9621919E-01 </wgt>
<wgt id='1728'> +3.9776983E-01 </wgt>
<wgt id='1729'> +3.9856326E-01 </wgt>
<wgt id='1730'> +3.9415424E-01 </wgt>
<wgt id='1731'> +3.6957303E-01 </wgt>
<wgt id='1732'> +4.1629483E-01 </wgt>
<wgt id='1733'> +4.0269589E-01 </wgt>
<wgt id='1734'> +3.9251775E-01 </wgt>
<wgt id='1735'> +3.8657933E-01 </wgt>
<wgt id='1736'> +3.9322224E-01 </wgt>
<wgt id='1737'> +4.0107139E-01 </wgt>
<wgt id='1738'> +4.0201672E-01 </wgt>
<wgt id='1739'> +3.9370599E-01 </wgt>
<wgt id='1740'> +3.9274987E-01 </wgt>
<wgt id='1741'> +3.9426354E-01 </wgt>
<wgt id='1742'> +4.1122713E-01 </wgt>
<wgt id='1743'> +3.9141834E-01 </wgt>
<wgt id='1744'> +3.9935081E-01 </wgt>
<wgt id='1745'> +3.8493808E-01 </wgt>
<wgt id='1746'> +3.9538630E-01 </wgt>
<wgt id='1747'> +3.9400583E-01 </wgt>
<wgt id='1748'> +3.9217409E-01 </wgt>
<wgt id='1749'> +4.1054750E-01 </wgt>
<wgt id='1750'> +4.0093804E-01 </wgt>
<wgt id='1751'> +3.9686341E-01 </wgt>
<wgt id='1752'> +3.8185571E-01 </wgt>
<wgt id='1753'> +3.9184483E-01 </wgt>
<wgt id='1754'> +3.9842536E-01 </wgt>
<wgt id='1755'> +4.0273227E-01 </wgt>
<wgt id='1756'> +3.8841217E-01 </wgt>
<wgt id='1757'> +3.9063515E-01 </wgt>
<wgt id='1758'> +3.9287437E-01 </wgt>
<wgt id='1759'> +3.9275773E-01 </wgt>
<wgt id='1760'> +3.8963236E-01 </wgt>
<wgt id='1761'> +4.0053046E-01 </wgt>
<wgt id='1762'> +3.9621919E-01 </wgt>
<wgt id='1763'> +3.9617029E-01 </wgt>
<wgt id='1764'> +4.0222163E-01 </wgt>
<wgt id='1765'> +4.0086949E-01 </wgt>
<wgt id='1766'> +4.1005924E-01 </wgt>
<wgt id='1767'> +3.9338023E-01 </wgt>
<wgt id='1768'> +3.8711292E-01 </wgt>
<wgt id='1769'> +3.9991495E-01 </wgt>
<wgt id='1770'> +4.0977864E-01 </wgt>
<wgt id='1771'> +3.9520378E-01 </wgt>
<wgt id='1772'> +3.9153951E-01 </wgt>
<wgt id='1773'> +3.9977502E-01 </wgt>
<wgt id='1774'> +3.8724332E-01 </wgt>
<wgt id='1775'> +3.9864147E-01 </wgt>
<wgt id='1776'> +4.0021197E-01 </wgt>
<wgt id='1777'> +4.0318711E-01 </wgt>
<wgt id='1778'> +3.9320578E-01 </wgt>
<wgt id='1779'> +3.9289601E-01 </wgt>
<wgt id='1780'> +4.0592954E-01 </wgt>
<wgt id='1781'> +4.0005075E-01 </wgt>
<wgt id='1782'> +4.0885106E-01 </wgt>
<wgt id='1783'> +3.8942719E-01 </wgt>
<wgt id='1784'> +4.0768475E-01 </wgt>
<wgt id='1785'> +3.9965561E-01 </wgt>
<wgt id='1786'> +4.0402550E-01 </wgt>
<wgt id='1787'> +4.0189210E-01 </wgt>
<wgt id='1788'> +3.9112812E-01 </wgt>
<wgt id='1789'> +4.0052665E-01 </wgt>
<wgt id='1790'> +4.0857498E-01 </wgt>
<wgt id='1791'> +3.7888607E-01 </wgt>
<wgt id='1792'> +4.0518266E-01 </wgt>
<wgt id='1793'> +4.0926848E-01 </wgt>
<wgt id='1794'> +3.9644625E-01 </wgt>
<wgt id='1795'> +3.9127697E-01 </wgt>
<wgt id='1796'> +4.0182067E-01 </wgt>
<wgt id='1797'> +3.9009638E-01 </wgt>
<wgt id='1798'> +4.0341184E-01 </wgt>
<wgt id='1799'> +4.0024686E-01 </wgt>
<wgt id='1800'> +3.9922905E-01 </wgt>
<wgt id='1801'> +3.9339022E-01 </wgt>
<wgt id='1802'> +3.9670183E-01 </wgt>
<wgt id='1803'> +3.9603369E-01 </wgt>
<wgt id='1804'> +4.0274011E-01 </wgt>
<wgt id='1805'> +3.9451828E-01 </wgt>
<wgt id='1806'> +3.9677281E-01 </wgt>
<wgt id='1807'> +3.8572886E-01 </wgt>
<wgt id='1808'> +3.9542344E-01 </wgt>
<wgt id='1809'> +3.9272795E-01 </wgt>
<wgt id='1810'> +3.9438710E-01 </wgt>
<wgt id='1811'> +3.9914027E-01 </wgt>
<wgt id='1812'> +3.9548161E-01 </wgt>
<wgt id='1813'> +4.0237525E-01 </wgt>
<wgt id='1814'> +4.0317735E-01 </wgt>
<wgt id='1815'> +4.0541308E-01 </wgt>
<wgt id='1816'> +3.9314013E-01 </wgt>
<wgt id='1817'> +3.9643398E-01 </wgt>
<wgt id='1818'> +3.8655885E-01 </wgt>
<wgt id='1819'> +3.9698491E-01 </wgt>
<wgt id='1820'> +3.9913087E-01 </wgt>
<wgt id='1821'> +4.0003095E-01 </wgt>
<wgt id='1822'> +3.9922024E-01 </wgt>
<wgt id='1823'> +3.9253569E-01 </wgt>
<wgt id='1824'> +3.9205851E-01 </wgt>
<wgt id='1825'> +3.9340224E-01 </wgt>
<wgt id='1826'> +3.8029751E-01 </wgt>
<wgt id='1827'> +3.8298394E-01 </wgt>
<wgt id='1828'> +4.0215661E-01 </wgt>
<wgt id='1829'> +4.0158466E-01 </wgt>
<wgt id='1830'> +3.8302014E-01 </wgt>
<wgt id='1831'> +3.9495176E-01 </wgt>
<wgt id='1832'> +3.8933801E-01 </wgt>
<wgt id='1833'> +3.8659688E-01 </wgt>
<wgt id='1834'> +3.8611495E-01 </wgt>
<wgt id='1835'> +3.9726324E-01 </wgt>
<wgt id='1836'> +3.9204376E-01 </wgt>
<wgt id='1837'> +4.0022102E-01 </wgt>
<wgt id='1838'> +3.8512273E-01 </wgt>
<wgt id='1839'> +4.1484478E-01 </wgt>
<wgt id='1840'> +3.9213586E-01 </wgt>
<wgt id='1841'> +3.9442755E-01 </wgt>
<wgt id='1842'> +3.9785716E-01 </wgt>
<wgt id='1843'> +3.8280351E-01 </wgt>
<wgt id='1844'> +3.9201727E-01 </wgt>
<wgt id='1845'> +3.8988283E-01 </wgt>
<wgt id='1846'> +3.9791786E-01 </wgt>
<wgt id='1847'> +3.8942173E-01 </wgt>
<wgt id='1848'> +3.9077999E-01 </wgt>
<wgt id='1849'> +3.9300926E-01 </wgt>
<wgt id='1850'> +3.9576119E-01 </wgt>
<wgt id='1851'> +3.9268916E-01 </wgt>
<wgt id='1852'> +3.9953432E-01 </wgt>
<wgt id='1853'> +3.8929265E-01 </wgt>
<wgt id='1854'> +4.0020172E-01 </wgt>
<wgt id='1855'> +3.8962762E-01 </wgt>
<wgt id='1856'> +3.9457981E-01 </wgt>
<wgt id='1857'> +4.0291362E-01 </wgt>
<wgt id='1858'> +3.9476034E-01 </wgt>
<wgt id='1859'> +3.9594919E-01 </wgt>
<wgt id='1860'> +3.8971052E-01 </wgt>
<wgt id='1861'> +3.8664982E-01 </wgt>
<wgt id='1862'> +3.9979438E-01 </wgt>
<wgt id='1863'> +3.8987530E-01 </wgt>
<wgt id='1864'> +3.8859637E-01 </wgt>
<wgt id='1865'> +3.9421424E-01 </wgt>
<wgt id='1866'> +3.9439599E-01 </wgt>
<wgt id='1867'> +3.9726305E-01 </wgt>
<wgt id='1868'> +3.9256070E-01 </wgt>
<wgt id='1869'> +3.9998469E-01 </wgt>
<wgt id='1870'> +3.9292960E-01 </wgt>
<wgt id='1871'> +3.9359729E-01 </wgt>
<wgt id='1872'> +3.8173735E-01 </wgt>
<wgt id='1873'> +4.0430014E-01 </wgt>
<wgt id='1874'> +3.9419967E-01 </wgt>
<wgt id='1875'> +3.8790433E-01 </wgt>
<wgt id='1876'> +3.9428551E-01 </wgt>
<wgt id='1877'> +3.9805628E-01 </wgt>
<wgt id='1878'> +3.9142633E-01 </wgt>
<wgt id='1879'> +4.0492714E-01 </wgt>
<wgt id='1880'> +3.7353066E-01 </wgt>
<wgt id='1881'> +3.9616213E-01 </wgt>
<wgt id='1882'> +3.8794539E-01 </wgt>
<wgt id='1883'> +4.1090236E-01 </wgt>
<wgt id='1884'> +3.8914823E-01 </wgt>
<wgt id='1885'> +3.8474409E-01 </wgt>
<wgt id='1886'> +3.8364100E-01 </wgt>
<wgt id='1887'> +4.0012936E-01 </wgt>
<wgt id='1888'> +3.9963842E-01 </wgt>
<wgt id='1889'> +3.8589638E-01 </wgt>
<wgt id='1890'> +3.9988439E-01 </wgt>
<wgt id='1891'> +3.9399936E-01 </wgt>
<wgt id='1892'> +3.9364637E-01 </wgt>
<wgt id='1893'> +3.8862581E-01 </wgt>
<wgt id='1894'> +4.0088233E-01 </wgt>
<wgt id='1895'> +3.9745159E-01 </wgt>
<wgt id='1896'> +3.8940702E-01 </wgt>
<wgt id='1897'> +3.9175118E-01 </wgt>
<wgt id='1898'> +3.9407720E-01 </wgt>
<wgt id='1899'> +3.8996294E-01 </wgt>
<wgt id='1900'> +3.9108260E-01 </wgt>
<wgt id='1901'> +3.8754547E-01 </wgt>
<wgt id='1902'> +3.8663922E-01 </wgt>
<wgt id='1903'> +3.8984544E-01 </wgt>
<wgt id='1904'> +3.9776942E-01 </wgt>
<wgt id='1905'> +3.9479555E-01 </wgt>
<wgt id='1906'> +3.8820701E-01 </wgt>
<wgt id='1907'> +3.9176390E-01 </wgt>
<wgt id='1908'> +3.9620393E-01 </wgt>
<wgt id='1909'> +3.8851256E-01 </wgt>
<wgt id='1910'> +3.9267668E-01 </wgt>
<wgt id='1911'> +3.7844917E-01 </wgt>
<wgt id='1912'> +3.9482184E-01 </wgt>
<wgt id='1913'> +3.9088997E-01 </wgt>
<wgt id='1914'> +4.0578415E-01 </wgt>
<wgt id='1915'> +4.0008674E-01 </wgt>
<wgt id='1916'> +3.8172500E-01 </wgt>
<wgt id='1917'> +3.8547034E-01 </wgt>
<wgt id='1918'> +4.1026833E-01 </wgt>
<wgt id='1919'> +3.9314013E-01 </wgt>
<wgt id='1920'> +3.9643398E-01 </wgt>
<wgt id='1921'> +3.8655885E-01 </wgt>
<wgt id='1922'> +3.9698491E-01 </wgt>
<wgt id='1923'> +3.9913087E-01 </wgt>
<wgt id='1924'> +4.0003095E-01 </wgt>
<wgt id='1925'> +3.9922024E-01 </wgt>
<wgt id='1926'> +3.9253569E-01 </wgt>
<wgt id='1927'> +3.9205851E-01 </wgt>
<wgt id='1928'> +3.9340224E-01 </wgt>
<wgt id='1929'> +3.8029751E-01 </wgt>
<wgt id='1930'> +3.8298394E-01 </wgt>
<wgt id='1931'> +4.0215661E-01 </wgt>
<wgt id='1932'> +4.0158466E-01 </wgt>
<wgt id='1933'> +3.8302014E-01 </wgt>
<wgt id='1934'> +3.9495176E-01 </wgt>
<wgt id='1935'> +3.8933801E-01 </wgt>
<wgt id='1936'> +3.8659688E-01 </wgt>
<wgt id='1937'> +3.8611495E-01 </wgt>
<wgt id='1938'> +3.9726324E-01 </wgt>
<wgt id='1939'> +3.9204376E-01 </wgt>
<wgt id='1940'> +4.0022102E-01 </wgt>
<wgt id='1941'> +3.8512273E-01 </wgt>
<wgt id='1942'> +4.1484478E-01 </wgt>
<wgt id='1943'> +3.9213586E-01 </wgt>
<wgt id='1944'> +3.9442755E-01 </wgt>
<wgt id='1945'> +3.9785716E-01 </wgt>
<wgt id='1946'> +3.8280351E-01 </wgt>
<wgt id='1947'> +3.9201727E-01 </wgt>
<wgt id='1948'> +3.8988283E-01 </wgt>
<wgt id='1949'> +3.9791786E-01 </wgt>
<wgt id='1950'> +3.8942173E-01 </wgt>
<wgt id='1951'> +3.9077999E-01 </wgt>
<wgt id='1952'> +3.9300926E-01 </wgt>
<wgt id='1953'> +3.9576119E-01 </wgt>
<wgt id='1954'> +3.9268916E-01 </wgt>
<wgt id='1955'> +3.9953432E-01 </wgt>
<wgt id='1956'> +3.8929265E-01 </wgt>
<wgt id='1957'> +4.0020172E-01 </wgt>
<wgt id='1958'> +3.8962762E-01 </wgt>
<wgt id='1959'> +3.9457981E-01 </wgt>
<wgt id='1960'> +4.0291362E-01 </wgt>
<wgt id='1961'> +3.9476034E-01 </wgt>
<wgt id='1962'> +3.9594919E-01 </wgt>
<wgt id='1963'> +3.8971052E-01 </wgt>
<wgt id='1964'> +3.8664982E-01 </wgt>
<wgt id='1965'> +3.9979438E-01 </wgt>
<wgt id='1966'> +3.8987530E-01 </wgt>
<wgt id='1967'> +3.8859637E-01 </wgt>
<wgt id='1968'> +3.9421424E-01 </wgt>
<wgt id='1969'> +3.9439599E-01 </wgt>
<wgt id='1970'> +3.9726305E-01 </wgt>
<wgt id='1971'> +3.9256070E-01 </wgt>
<wgt id='1972'> +3.9998469E-01 </wgt>
<wgt id='1973'> +3.9292960E-01 </wgt>
<wgt id='1974'> +3.9359729E-01 </wgt>
<wgt id='1975'> +3.8173735E-01 </wgt>
<wgt id='1976'> +4.0430014E-01 </wgt>
<wgt id='1977'> +3.9419967E-01 </wgt>
<wgt id='1978'> +3.8790433E-01 </wgt>
<wgt id='1979'> +3.9428551E-01 </wgt>
<wgt id='1980'> +3.9805628E-01 </wgt>
<wgt id='1981'> +3.9142633E-01 </wgt>
<wgt id='1982'> +4.0492714E-01 </wgt>
<wgt id='1983'> +3.7353066E-01 </wgt>
<wgt id='1984'> +3.9616213E-01 </wgt>
<wgt id='1985'> +3.8794539E-01 </wgt>
<wgt id='1986'> +4.1090236E-01 </wgt>
<wgt id='1987'> +3.8914823E-01 </wgt>
<wgt id='1988'> +3.8474409E-01 </wgt>
<wgt id='1989'> +3.8364100E-01 </wgt>
<wgt id='1990'> +4.0012936E-01 </wgt>
<wgt id='1991'> +3.9963842E-01 </wgt>
<wgt id='1992'> +3.8589638E-01 </wgt>
<wgt id='1993'> +3.9988439E-01 </wgt>
<wgt id='1994'> +3.9399936E-01 </wgt>
<wgt id='1995'> +3.9364637E-01 </wgt>
<wgt id='1996'> +3.8862581E-01 </wgt>
<wgt id='1997'> +4.0088233E-01 </wgt>
<wgt id='1998'> +3.9745159E-01 </wgt>
<wgt id='1999'> +3.8940702E-01 </wgt>
<wgt id='2000'> +3.9175118E-01 </wgt>
<wgt id='2001'> +3.9407720E-01 </wgt>
<wgt id='2002'> +3.8996294E-01 </wgt>
<wgt id='2003'> +3.9108260E-01 </wgt>
<wgt id='2004'> +3.8754547E-01 </wgt>
<wgt id='2005'> +3.8663922E-01 </wgt>
<wgt id='2006'> +3.8984544E-01 </wgt>
<wgt id='2007'> +3.9776942E-01 </wgt>
<wgt id='2008'> +3.9479555E-01 </wgt>
<wgt id='2009'> +3.8820701E-01 </wgt>
<wgt id='2010'> +3.9176390E-01 </wgt>
<wgt id='2011'> +3.9620393E-01 </wgt>
<wgt id='2012'> +3.8851256E-01 </wgt>
<wgt id='2013'> +3.9267668E-01 </wgt>
<wgt id='2014'> +3.7844917E-01 </wgt>
<wgt id='2015'> +3.9482184E-01 </wgt>
<wgt id='2016'> +3.9088997E-01 </wgt>
<wgt id='2017'> +4.0578415E-01 </wgt>
<wgt id='2018'> +4.0008674E-01 </wgt>
<wgt id='2019'> +3.8172500E-01 </wgt>
<wgt id='2020'> +3.9214222E-01 </wgt>
<wgt id='2021'> +3.9475187E-01 </wgt>
<wgt id='2022'> +3.9378974E-01 </wgt>
</rwgt>
</event>
<event>
13      2 +3.9556008E-01 1.41272200e+02 7.81860800e-03 1.25128600e-01
       -2 -1    0    0    0  501 +0.0000000000e+00 +0.0000000000e+00 +6.6229280432e+02 6.6229280433e+02 2.5500000000e-03 0.0000e+00 1.0000e+00
       21 -1    0    0  502  503 +0.0000000000e+00 +0.0000000000e+00 -2.2321766249e+02 2.2321766249e+02 0.0000000000e+00 0.0000e+00 1.0000e+00
 -8000001  2    1    2    0  503 -1.9029823571e+01 +2.1189681196e+01 +2.9610640827e+02 6.6969404148e+02 5.9999997283e+02 0.0000e+00 0.0000e+00
       -1  1    1    2    0  501 +1.2522097465e+01 +1.1178648799e+01 +1.7126385299e+02 1.7208449227e+02 5.0400000000e-03 0.0000e+00 1.0000e+00
        5  1    1    2  502    0 +6.5077261059e+00 -3.2368329995e+01 -2.8295119431e+01 4.3731933071e+01 4.6700000000e+00 0.0000e+00 -1.0000e+00
       -6  2    3    3    0  503 +1.5910042253e+02 -1.9358068327e+02 +1.2177512235e+02 3.2860355491e+02 1.7425467136e+02 0.0000e+00 0.0000e+00
       -5  1    6    6    0  503 +6.5376521893e+01 -1.1950155462e+02 +1.0721924721e+01 1.3671678662e+02 4.6700000000e+00 0.0000e+00 1.0000e+00
      -24  2    6    6    0    0 +9.3723900634e+01 -7.4079128649e+01 +1.1105319763e+02 1.9188676829e+02 1.0107340051e+02 0.0000e+00 0.0000e+00
        3  1    8    8  504    0 +2.2320982281e+01 -7.7322900998e+01 +3.5776458849e+01 8.8073960270e+01 1.0100000000e-01 0.0000e+00 -1.0000e+00
       -4  1    8    8    0  504 +7.1402918353e+01 +3.2437723491e+00 +7.5276738778e+01 1.0381280802e+02 1.2700000000e+00 0.0000e+00 1.0000e+00
       23  2    3    3    0    0 -1.7813024610e+02 +2.1477036447e+02 +1.7433128593e+02 3.4109048657e+02 8.9970154764e+01 0.0000e+00 0.0000e+00
        2  1   11   11  505    0 -1.0512890241e+02 +7.6117338967e+01 +4.3287090551e+01 1.3681998256e+02 2.5500000000e-03 0.0000e+00 -1.0000e+00
       -2  1   11   11    0  505 -7.3001343691e+01 +1.3865302550e+02 +1.3104419537e+02 2.0427050401e+02 2.5500000000e-03 0.0000e+00 1.0000e+00
<mgrwt>
<rscale>  1 0.48696768e+02</rscale>
<asrwt>0</asrwt>
<pdfrwt beam="1">  1       21 0.34341179e-01 0.14127218e+03</pdfrwt>
<pdfrwt beam="2">  1       -2 0.10189120e+00 0.16785861e+02</pdfrwt>
<totfact> 0.88973995e+02</totfact>
</mgrwt>
<rwgt>
<wgt id='1001'> +3.9556008E-01 </wgt>
<wgt id='1002'> +2.1852611E-01 </wgt>
<wgt id='1003'> +2.1851613E-01 </wgt>
<wgt id='1004'> +2.5132886E-01 </wgt>
<wgt id='1005'> +2.0984465E-01 </wgt>
<wgt id='1006'> +3.5247093E-01 </wgt>
<wgt id='1007'> +2.0178825E-01 </wgt>
<wgt id='1008'> +2.0177948E-01 </wgt>
<wgt id='1009'> +2.3040128E-01 </wgt>
<wgt id='1010'> +1.9414703E-01 </wgt>
<wgt id='1011'> +4.5118347E-01 </wgt>
<wgt id='1012'> +2.3837569E-01 </wgt>
<wgt id='1013'> +2.3836416E-01 </wgt>
<wgt id='1014'> +2.7656241E-01 </wgt>
<wgt id='1015'> +2.2837615E-01 </wgt>
<wgt id='1016'> +3.7320446E-01 </wgt>
<wgt id='1017'> +2.0727382E-01 </wgt>
<wgt id='1018'> +2.0726449E-01 </wgt>
<wgt id='1019'> +2.3836416E-01 </wgt>
<wgt id='1020'> +1.9917019E-01 </wgt>
<wgt id='1021'> +3.3255055E-01 </wgt>
<wgt id='1022'> +1.9139782E-01 </wgt>
<wgt id='1023'> +1.9138963E-01 </wgt>
<wgt id='1024'> +2.1851613E-01 </wgt>
<wgt id='1025'> +1.8427108E-01 </wgt>
<wgt id='1026'> +4.2568422E-01 </wgt>
<wgt id='1027'> +2.2610131E-01 </wgt>
<wgt id='1028'> +2.2609053E-01 </wgt>
<wgt id='1029'> +2.6229606E-01 </wgt>
<wgt id='1030'> +2.1675902E-01 </wgt>
<wgt id='1031'> +4.1858958E-01 </wgt>
<wgt id='1032'> +2.3041184E-01 </wgt>
<wgt id='1033'> +2.3040128E-01 </wgt>
<wgt id='1034'> +2.6510680E-01 </wgt>
<wgt id='1035'> +2.2124275E-01 </wgt>
<wgt id='1036'> +3.7299178E-01 </wgt>
<wgt id='1037'> +2.1276360E-01 </wgt>
<wgt id='1038'> +2.1275432E-01 </wgt>
<wgt id='1039'> +2.4303196E-01 </wgt>
<wgt id='1040'> +2.0469249E-01 </wgt>
<wgt id='1041'> +4.7745137E-01 </wgt>
<wgt id='1042'> +2.5134104E-01 </wgt>
<wgt id='1043'> +2.5132886E-01 </wgt>
<wgt id='1044'> +2.9172367E-01 </wgt>
<wgt id='1045'> +2.4078082E-01 </wgt>
<wgt id='1046'> +3.9556008E-01 </wgt>
<wgt id='1047'> +3.9556008E-01 </wgt>
<wgt id='1048'> +3.9556008E-01 </wgt>
<wgt id='1049'> +3.9511142E-01 </wgt>
<wgt id='1050'> +3.9571599E-01 </wgt>
<wgt id='1051'> +3.9611766E-01 </wgt>
<wgt id='1052'> +3.9826611E-01 </wgt>
<wgt id='1053'> +3.9043921E-01 </wgt>
<wgt id='1054'> +3.9578539E-01 </wgt>
<wgt id='1055'> +3.9297341E-01 </wgt>
<wgt id='1056'> +3.9190844E-01 </wgt>
<wgt id='1057'> +3.9806048E-01 </wgt>
<wgt id='1058'> +3.9340600E-01 </wgt>
<wgt id='1059'> +3.9686764E-01 </wgt>
<wgt id='1060'> +3.9642378E-01 </wgt>
<wgt id='1061'> +4.0117298E-01 </wgt>
<wgt id='1062'> +3.9350937E-01 </wgt>
<wgt id='1063'> +4.0258845E-01 </wgt>
<wgt id='1064'> +3.9428592E-01 </wgt>
<wgt id='1065'> +3.9582122E-01 </wgt>
<wgt id='1066'> +3.9120114E-01 </wgt>
<wgt id='1067'> +3.9833194E-01 </wgt>
<wgt id='1068'> +3.9518531E-01 </wgt>
<wgt id='1069'> +3.9154265E-01 </wgt>
<wgt id='1070'> +3.9472899E-01 </wgt>
<wgt id='1071'> +3.9565381E-01 </wgt>
<wgt id='1072'> +3.9215322E-01 </wgt>
<wgt id='1073'> +3.9604650E-01 </wgt>
<wgt id='1074'> +3.9606896E-01 </wgt>
<wgt id='1075'> +3.9888866E-01 </wgt>
<wgt id='1076'> +3.9353352E-01 </wgt>
<wgt id='1077'> +3.9977246E-01 </wgt>
<wgt id='1078'> +3.9687747E-01 </wgt>
<wgt id='1079'> +3.9807405E-01 </wgt>
<wgt id='1080'> +3.9332389E-01 </wgt>
<wgt id='1081'> +3.9483847E-01 </wgt>
<wgt id='1082'> +3.9673657E-01 </wgt>
<wgt id='1083'> +3.9389760E-01 </wgt>
<wgt id='1084'> +3.9562098E-01 </wgt>
<wgt id='1085'> +3.9539669E-01 </wgt>
<wgt id='1086'> +3.9556340E-01 </wgt>
<wgt id='1087'> +3.9471714E-01 </wgt>
<wgt id='1088'> +3.9518522E-01 </wgt>
<wgt id='1089'> +3.9401887E-01 </wgt>
<wgt id='1090'> +3.9602721E-01 </wgt>
<wgt id='1091'> +3.9680397E-01 </wgt>
<wgt id='1092'> +3.9501967E-01 </wgt>
<wgt id='1093'> +3.9624095E-01 </wgt>
<wgt id='1094'> +3.9538635E-01 </wgt>
<wgt id='1095'> +3.9512673E-01 </wgt>
<wgt id='1096'> +3.9871459E-01 </wgt>
<wgt id='1097'> +3.9177312E-01 </wgt>
<wgt id='1098'> +3.9749672E-01 </wgt>
<wgt id='1099'> +3.9525074E-01 </wgt>
<wgt id='1100'> +3.9359870E-01 </wgt>
<wgt id='1101'> +3.9558514E-01 </wgt>
<wgt id='1102'> +3.9582086E-01 </wgt>
<wgt id='1103'> +3.9735346E-01 </wgt>
<wgt id='1104'> +3.9685999E-01 </wgt>
<wgt id='1105'> +3.9645107E-01 </wgt>
<wgt id='1106'> +3.9684255E-01 </wgt>
<wgt id='1107'> +3.9605853E-01 </wgt>
<wgt id='1108'> +3.9755569E-01 </wgt>
<wgt id='1109'> +3.9863831E-01 </wgt>
<wgt id='1110'> +3.9716512E-01 </wgt>
<wgt id='1111'> +3.9409928E-01 </wgt>
<wgt id='1112'> +3.9601546E-01 </wgt>
<wgt id='1113'> +3.9635315E-01 </wgt>
<wgt id='1114'> +3.9871639E-01 </wgt>
<wgt id='1115'> +3.9558932E-01 </wgt>
<wgt id='1116'> +3.9648335E-01 </wgt>
<wgt id='1117'> +3.9461907E-01 </wgt>
<wgt id='1118'> +3.9634602E-01 </wgt>
<wgt id='1119'> +3.9477131E-01 </wgt>
<wgt id='1120'> +3.9473713E-01 </wgt>
<wgt id='1121'> +3.9553878E-01 </wgt>
<wgt id='1122'> +3.9493579E-01 </wgt>
<wgt id='1123'> +3.9433233E-01 </wgt>
<wgt id='1124'> +3.9576909E-01 </wgt>
<wgt id='1125'> +3.9740397E-01 </wgt>
<wgt id='1126'> +3.9694394E-01 </wgt>
<wgt id='1127'> +3.9445946E-01 </wgt>
<wgt id='1128'> +3.9527646E-01 </wgt>
<wgt id='1129'> +3.9487316E-01 </wgt>
<wgt id='1130'> +3.9731601E-01 </wgt>
<wgt id='1131'> +3.9549116E-01 </wgt>
<wgt id='1132'> +3.9690159E-01 </wgt>
<wgt id='1133'> +3.9504689E-01 </wgt>
<wgt id='1134'> +3.9594198E-01 </wgt>
<wgt id='1135'> +3.9561431E-01 </wgt>
<wgt id='1136'> +3.9461350E-01 </wgt>
<wgt id='1137'> +3.9622278E-01 </wgt>
<wgt id='1138'> +3.9523912E-01 </wgt>
<wgt id='1139'> +3.9578081E-01 </wgt>
<wgt id='1140'> +3.9455587E-01 </wgt>
<wgt id='1141'> +3.9580414E-01 </wgt>
<wgt id='1142'> +3.9559202E-01 </wgt>
<wgt id='1143'> +3.9562506E-01 </wgt>
<wgt id='1144'> +3.9767167E-01 </wgt>
<wgt id='1145'> +3.9543642E-01 </wgt>
<wgt id='1146'> +3.9555865E-01 </wgt>
<wgt id='1147'> +3.9679717E-01 </wgt>
<wgt id='1148'> +3.9556008E-01 </wgt>
<wgt id='1149'> +3.9911076E-01 </wgt>
<wgt id='1150'> +4.5533962E-01 </wgt>
<wgt id='1151'> +4.0624453E-01 </wgt>
<wgt id='1152'> +4.2419258E-01 </wgt>
<wgt id='1153'> +4.2207409E-01 </wgt>
<wgt id='1154'> +3.8906622E-01 </wgt>
<wgt id='1155'> +4.0135100E-01 </wgt>
<wgt id='1156'> +3.7617404E-01 </wgt>
<wgt id='1157'> +3.9301722E-01 </wgt>
<wgt id='1158'> +3.9375249E-01 </wgt>
<wgt id='1159'> +4.0072418E-01 </wgt>
<wgt id='1160'> +3.9993464E-01 </wgt>
<wgt id='1161'> +3.9440228E-01 </wgt>
<wgt id='1162'> +3.8168447E-01 </wgt>
<wgt id='1163'> +3.9891905E-01 </wgt>
<wgt id='1164'> +3.8734108E-01 </wgt>
<wgt id='1165'> +3.7383695E-01 </wgt>
<wgt id='1166'> +4.1371145E-01 </wgt>
<wgt id='1167'> +4.0693149E-01 </wgt>
<wgt id='1168'> +3.9803566E-01 </wgt>
<wgt id='1169'> +3.5646763E-01 </wgt>
<wgt id='1170'> +4.1513239E-01 </wgt>
<wgt id='1171'> +4.1977638E-01 </wgt>
<wgt id='1172'> +4.0668805E-01 </wgt>
<wgt id='1173'> +3.8040994E-01 </wgt>
<wgt id='1174'> +3.7731876E-01 </wgt>
<wgt id='1175'> +3.9745334E-01 </wgt>
<wgt id='1176'> +4.4012079E-01 </wgt>
<wgt id='1177'> +4.0290416E-01 </wgt>
<wgt id='1178'> +3.9354560E-01 </wgt>
<wgt id='1179'> +4.1270142E-01 </wgt>
<wgt id='1180'> +4.1914010E-01 </wgt>
<wgt id='1181'> +3.9674849E-01 </wgt>
<wgt id='1182'> +4.0497868E-01 </wgt>
<wgt id='1183'> +4.1195790E-01 </wgt>
<wgt id='1184'> +4.0865811E-01 </wgt>
<wgt id='1185'> +3.9628981E-01 </wgt>
<wgt id='1186'> +4.0867223E-01 </wgt>
<wgt id='1187'> +3.8270079E-01 </wgt>
<wgt id='1188'> +4.1177406E-01 </wgt>
<wgt id='1189'> +3.7471472E-01 </wgt>
<wgt id='1190'> +4.1430925E-01 </wgt>
<wgt id='1191'> +3.9833119E-01 </wgt>
<wgt id='1192'> +4.3754774E-01 </wgt>
<wgt id='1193'> +4.0739689E-01 </wgt>
<wgt id='1194'> +3.8742241E-01 </wgt>
<wgt id='1195'> +4.0375520E-01 </wgt>
<wgt id='1196'> +4.1176319E-01 </wgt>
<wgt id='1197'> +3.8814560E-01 </wgt>
<wgt id='1198'> +4.0461017E-01 </wgt>
<wgt id='1199'> +4.0100681E-01 </wgt>
<wgt id='1200'> +4.0289561E-01 </wgt>
<wgt id='1201'> +3.7319600E-01 </wgt>
<wgt id='1202'> +3.9881303E-01 </wgt>
<wgt id='1203'> +3.9930143E-01 </wgt>
<wgt id='1204'> +4.1283085E-01 </wgt>
<wgt id='1205'> +4.1505778E-01 </wgt>
<wgt id='1206'> +4.0462690E-01 </wgt>
<wgt id='1207'> +4.1446762E-01 </wgt>
<wgt id='1208'> +3.9445459E-01 </wgt>
<wgt id='1209'> +4.0660487E-01 </wgt>
<wgt id='1210'> +4.0667033E-01 </wgt>
<wgt id='1211'> +3.9646501E-01 </wgt>
<wgt id='1212'> +4.0391204E-01 </wgt>
<wgt id='1213'> +3.8300809E-01 </wgt>
<wgt id='1214'> +3.9370566E-01 </wgt>
<wgt id='1215'> +3.7403430E-01 </wgt>
<wgt id='1216'> +4.0101455E-01 </wgt>
<wgt id='1217'> +4.1489723E-01 </wgt>
<wgt id='1218'> +3.9246195E-01 </wgt>
<wgt id='1219'> +4.0023156E-01 </wgt>
<wgt id='1220'> +4.0939791E-01 </wgt>
<wgt id='1221'> +3.7215529E-01 </wgt>
<wgt id='1222'> +3.5003475E-01 </wgt>
<wgt id='1223'> +3.6673330E-01 </wgt>
<wgt id='1224'> +3.8979717E-01 </wgt>
<wgt id='1225'> +4.2255132E-01 </wgt>
<wgt id='1226'> +3.9846802E-01 </wgt>
<wgt id='1227'> +3.9372929E-01 </wgt>
<wgt id='1228'> +3.9023506E-01 </wgt>
<wgt id='1229'> +4.2133256E-01 </wgt>
<wgt id='1230'> +4.1912821E-01 </wgt>
<wgt id='1231'> +3.7383695E-01 </wgt>
<wgt id='1232'> +3.7133520E-01 </wgt>
<wgt id='1233'> +4.0274140E-01 </wgt>
<wgt id='1234'> +4.0111680E-01 </wgt>
<wgt id='1235'> +4.3289398E-01 </wgt>
<wgt id='1236'> +4.0306195E-01 </wgt>
<wgt id='1237'> +4.2459896E-01 </wgt>
<wgt id='1238'> +3.5160341E-01 </wgt>
<wgt id='1239'> +3.9973295E-01 </wgt>
<wgt id='1240'> +3.9014415E-01 </wgt>
<wgt id='1241'> +3.4118348E-01 </wgt>
<wgt id='1242'> +3.7951365E-01 </wgt>
<wgt id='1243'> +3.9073906E-01 </wgt>
<wgt id='1244'> +4.0863715E-01 </wgt>
<wgt id='1245'> +3.9598834E-01 </wgt>
<wgt id='1246'> +4.1822752E-01 </wgt>
<wgt id='1247'> +4.1887900E-01 </wgt>
<wgt id='1248'> +4.0183888E-01 </wgt>
<wgt id='1249'> +3.9022215E-01 </wgt>
<wgt id='1250'> +3.6130576E-01 </wgt>
<wgt id='1251'> +3.5925663E-01 </wgt>
<wgt id='1252'> +3.6812094E-01 </wgt>
<wgt id='1253'> +3.7905990E-01 </wgt>
<wgt id='1254'> +3.6323731E-01 </wgt>
<wgt id='1255'> +4.4820793E-01 </wgt>
<wgt id='1256'> +4.4580819E-01 </wgt>
<wgt id='1257'> +4.4957240E-01 </wgt>
<wgt id='1258'> +4.4272474E-01 </wgt>
<wgt id='1259'> +4.5096201E-01 </wgt>
<wgt id='1260'> +4.4929378E-01 </wgt>
<wgt id='1261'> +4.4670739E-01 </wgt>
<wgt id='1262'> +4.4953136E-01 </wgt>
<wgt id='1263'> +4.4732011E-01 </wgt>
<wgt id='1264'> +4.5102200E-01 </wgt>
<wgt id='1265'> +4.4628337E-01 </wgt>
<wgt id='1266'> +4.4803279E-01 </wgt>
<wgt id='1267'> +4.4837035E-01 </wgt>
<wgt id='1268'> +4.4825521E-01 </wgt>
<wgt id='1269'> +4.4799388E-01 </wgt>
<wgt id='1270'> +4.4038088E-01 </wgt>
<wgt id='1271'> +4.5689338E-01 </wgt>
<wgt id='1272'> +4.4903499E-01 </wgt>
<wgt id='1273'> +4.4754043E-01 </wgt>
<wgt id='1274'> +4.5054872E-01 </wgt>
<wgt id='1275'> +4.4591800E-01 </wgt>
<wgt id='1276'> +4.4627127E-01 </wgt>
<wgt id='1277'> +4.5055546E-01 </wgt>
<wgt id='1278'> +4.5338905E-01 </wgt>
<wgt id='1279'> +4.4387683E-01 </wgt>
<wgt id='1280'> +4.5204865E-01 </wgt>
<wgt id='1281'> +4.3558573E-01 </wgt>
<wgt id='1282'> +4.4981559E-01 </wgt>
<wgt id='1283'> +4.4461084E-01 </wgt>
<wgt id='1284'> +4.4270416E-01 </wgt>
<wgt id='1285'> +4.5359073E-01 </wgt>
<wgt id='1286'> +4.5471390E-01 </wgt>
<wgt id='1287'> +4.4740422E-01 </wgt>
<wgt id='1288'> +4.5144626E-01 </wgt>
<wgt id='1289'> +4.4665280E-01 </wgt>
<wgt id='1290'> +4.4792784E-01 </wgt>
<wgt id='1291'> +4.4825364E-01 </wgt>
<wgt id='1292'> +4.5192657E-01 </wgt>
<wgt id='1293'> +4.4322653E-01 </wgt>
<wgt id='1294'> +4.4139744E-01 </wgt>
<wgt id='1295'> +4.5126223E-01 </wgt>
<wgt id='1296'> +4.0566621E-01 </wgt>
<wgt id='1297'> +4.0697617E-01 </wgt>
<wgt id='1298'> +4.0456969E-01 </wgt>
<wgt id='1299'> +4.1067618E-01 </wgt>
<wgt id='1300'> +4.0003952E-01 </wgt>
<wgt id='1301'> +4.0330695E-01 </wgt>
<wgt id='1302'> +4.0915497E-01 </wgt>
<wgt id='1303'> +4.0010541E-01 </wgt>
<wgt id='1304'> +4.0937275E-01 </wgt>
<wgt id='1305'> +4.0627892E-01 </wgt>
<wgt id='1306'> +4.0477997E-01 </wgt>
<wgt id='1307'> +4.1002665E-01 </wgt>
<wgt id='1308'> +4.0290779E-01 </wgt>
<wgt id='1309'> +4.0434970E-01 </wgt>
<wgt id='1310'> +4.0740401E-01 </wgt>
<wgt id='1311'> +4.0237881E-01 </wgt>
<wgt id='1312'> +4.0680509E-01 </wgt>
<wgt id='1313'> +4.0431808E-01 </wgt>
<wgt id='1314'> +4.0710397E-01 </wgt>
<wgt id='1315'> +4.0508384E-01 </wgt>
<wgt id='1316'> +4.0621245E-01 </wgt>
<wgt id='1317'> +4.0604865E-01 </wgt>
<wgt id='1318'> +4.0546061E-01 </wgt>
<wgt id='1319'> +4.1187918E-01 </wgt>
<wgt id='1320'> +4.0323853E-01 </wgt>
<wgt id='1321'> +4.1136937E-01 </wgt>
<wgt id='1322'> +4.0302513E-01 </wgt>
<wgt id='1323'> +4.0821906E-01 </wgt>
<wgt id='1324'> +4.0325369E-01 </wgt>
<wgt id='1325'> +4.0415860E-01 </wgt>
<wgt id='1326'> +4.0517721E-01 </wgt>
<wgt id='1327'> +4.0512794E-01 </wgt>
<wgt id='1328'> +4.0592167E-01 </wgt>
<wgt id='1329'> +4.0537123E-01 </wgt>
<wgt id='1330'> +4.0609743E-01 </wgt>
<wgt id='1331'> +4.1231585E-01 </wgt>
<wgt id='1332'> +4.0142460E-01 </wgt>
<wgt id='1333'> +4.1202001E-01 </wgt>
<wgt id='1334'> +3.9897755E-01 </wgt>
<wgt id='1335'> +4.0751712E-01 </wgt>
<wgt id='1336'> +4.0511150E-01 </wgt>
<wgt id='1337'> +4.0566621E-01 </wgt>
<wgt id='1338'> +4.0545578E-01 </wgt>
<wgt id='1339'> +4.0550291E-01 </wgt>
<wgt id='1340'> +4.0552476E-01 </wgt>
<wgt id='1341'> +4.0567541E-01 </wgt>
<wgt id='1342'> +4.0569077E-01 </wgt>
<wgt id='1343'> +4.0567505E-01 </wgt>
<wgt id='1344'> +3.8260334E-01 </wgt>
<wgt id='1345'> +3.8383263E-01 </wgt>
<wgt id='1346'> +3.8142294E-01 </wgt>
<wgt id='1347'> +3.7925224E-01 </wgt>
<wgt id='1348'> +3.8509037E-01 </wgt>
<wgt id='1349'> +3.7654715E-01 </wgt>
<wgt id='1350'> +3.8775107E-01 </wgt>
<wgt id='1351'> +3.8255305E-01 </wgt>
<wgt id='1352'> +3.8269744E-01 </wgt>
<wgt id='1353'> +3.8596447E-01 </wgt>
<wgt id='1354'> +3.8024448E-01 </wgt>
<wgt id='1355'> +3.8345908E-01 </wgt>
<wgt id='1356'> +3.8195077E-01 </wgt>
<wgt id='1357'> +3.8692383E-01 </wgt>
<wgt id='1358'> +3.7998028E-01 </wgt>
<wgt id='1359'> +3.8340734E-01 </wgt>
<wgt id='1360'> +3.8064384E-01 </wgt>
<wgt id='1361'> +3.8245967E-01 </wgt>
<wgt id='1362'> +3.8322547E-01 </wgt>
<wgt id='1363'> +3.8353112E-01 </wgt>
<wgt id='1364'> +3.8156381E-01 </wgt>
<wgt id='1365'> +3.8937071E-01 </wgt>
<wgt id='1366'> +3.8066316E-01 </wgt>
<wgt id='1367'> +3.8705269E-01 </wgt>
<wgt id='1368'> +3.8042059E-01 </wgt>
<wgt id='1369'> +3.8199879E-01 </wgt>
<wgt id='1370'> +3.8199533E-01 </wgt>
<wgt id='1371'> +3.8179171E-01 </wgt>
<wgt id='1372'> +3.8397603E-01 </wgt>
<wgt id='1373'> +3.8433100E-01 </wgt>
<wgt id='1374'> +3.8216593E-01 </wgt>
<wgt id='1375'> +3.8391064E-01 </wgt>
<wgt id='1376'> +3.8223146E-01 </wgt>
<wgt id='1377'> +3.8293701E-01 </wgt>
<wgt id='1378'> +3.8260374E-01 </wgt>
<wgt id='1379'> +3.7620761E-01 </wgt>
<wgt id='1380'> +3.8829366E-01 </wgt>
<wgt id='1381'> +3.7939629E-01 </wgt>
<wgt id='1382'> +3.8405839E-01 </wgt>
<wgt id='1383'> +3.8176805E-01 </wgt>
<wgt id='1384'> +3.8633744E-01 </wgt>
<wgt id='1385'> +3.8260334E-01 </wgt>
<wgt id='1386'> +3.8248631E-01 </wgt>
<wgt id='1387'> +3.8241850E-01 </wgt>
<wgt id='1388'> +3.8250785E-01 </wgt>
<wgt id='1389'> +3.8255527E-01 </wgt>
<wgt id='1390'> +3.8256835E-01 </wgt>
<wgt id='1391'> +3.8264514E-01 </wgt>
<wgt id='1392'> +4.2860850E-01 </wgt>
<wgt id='1393'> +4.2659703E-01 </wgt>
<wgt id='1394'> +4.3076606E-01 </wgt>
<wgt id='1395'> +4.3008171E-01 </wgt>
<wgt id='1396'> +4.2754004E-01 </wgt>
<wgt id='1397'> +4.2794668E-01 </wgt>
<wgt id='1398'> +4.2927688E-01 </wgt>
<wgt id='1399'> +4.2621671E-01 </wgt>
<wgt id='1400'> +4.3157388E-01 </wgt>
<wgt id='1401'> +4.2334804E-01 </wgt>
<wgt id='1402'> +4.3520973E-01 </wgt>
<wgt id='1403'> +4.2772718E-01 </wgt>
<wgt id='1404'> +4.3040365E-01 </wgt>
<wgt id='1405'> +4.2592446E-01 </wgt>
<wgt id='1406'> +4.3231195E-01 </wgt>
<wgt id='1407'> +4.3079215E-01 </wgt>
<wgt id='1408'> +4.2708796E-01 </wgt>
<wgt id='1409'> +4.2365103E-01 </wgt>
<wgt id='1410'> +4.3419882E-01 </wgt>
<wgt id='1411'> +4.2417463E-01 </wgt>
<wgt id='1412'> +4.3197994E-01 </wgt>
<wgt id='1413'> +4.3178373E-01 </wgt>
<wgt id='1414'> +4.2525626E-01 </wgt>
<wgt id='1415'> +4.2326607E-01 </wgt>
<wgt id='1416'> +4.3391526E-01 </wgt>
<wgt id='1417'> +4.3124896E-01 </wgt>
<wgt id='1418'> +4.2542395E-01 </wgt>
<wgt id='1419'> +4.2834421E-01 </wgt>
<wgt id='1420'> +4.2909604E-01 </wgt>
<wgt id='1421'> +4.2539262E-01 </wgt>
<wgt id='1422'> +4.3271122E-01 </wgt>
<wgt id='1423'> +4.3697387E-01 </wgt>
<wgt id='1424'> +4.2348922E-01 </wgt>
<wgt id='1425'> +4.2819157E-01 </wgt>
<wgt id='1426'> +4.3068360E-01 </wgt>
<wgt id='1427'> +4.2837244E-01 </wgt>
<wgt id='1428'> +4.2938176E-01 </wgt>
<wgt id='1429'> +4.2750935E-01 </wgt>
<wgt id='1430'> +4.2965549E-01 </wgt>
<wgt id='1431'> +4.2678585E-01 </wgt>
<wgt id='1432'> +4.2987663E-01 </wgt>
<wgt id='1433'> +4.2117226E-01 </wgt>
<wgt id='1434'> +4.4205932E-01 </wgt>
<wgt id='1435'> +4.2586432E-01 </wgt>
<wgt id='1436'> +4.2831984E-01 </wgt>
<wgt id='1437'> +4.2704542E-01 </wgt>
<wgt id='1438'> +4.3372045E-01 </wgt>
<wgt id='1439'> +4.3139614E-01 </wgt>
<wgt id='1440'> +4.2481615E-01 </wgt>
<wgt id='1441'> +4.3502085E-01 </wgt>
<wgt id='1442'> +4.2687801E-01 </wgt>
<wgt id='1443'> +4.2504432E-01 </wgt>
<wgt id='1444'> +4.2300457E-01 </wgt>
<wgt id='1445'> +4.2729863E-01 </wgt>
<wgt id='1446'> +4.2653064E-01 </wgt>
<wgt id='1447'> +4.2400605E-01 </wgt>
<wgt id='1448'> +4.2439524E-01 </wgt>
<wgt id='1449'> +4.2568907E-01 </wgt>
<wgt id='1450'> +4.2276309E-01 </wgt>
<wgt id='1451'> +4.2761681E-01 </wgt>
<wgt id='1452'> +4.1985937E-01 </wgt>
<wgt id='1453'> +4.3013247E-01 </wgt>
<wgt id='1454'> +4.2383107E-01 </wgt>
<wgt id='1455'> +4.2774987E-01 </wgt>
<wgt id='1456'> +4.2221026E-01 </wgt>
<wgt id='1457'> +4.3012053E-01 </wgt>
<wgt id='1458'> +4.2794365E-01 </wgt>
<wgt id='1459'> +4.2341978E-01 </wgt>
<wgt id='1460'> +4.1867468E-01 </wgt>
<wgt id='1461'> +4.3251815E-01 </wgt>
<wgt id='1462'> +4.2258451E-01 </wgt>
<wgt id='1463'> +4.2722192E-01 </wgt>
<wgt id='1464'> +4.2743231E-01 </wgt>
<wgt id='1465'> +4.2193288E-01 </wgt>
<wgt id='1466'> +4.1715401E-01 </wgt>
<wgt id='1467'> +4.3026340E-01 </wgt>
<wgt id='1468'> +4.2305370E-01 </wgt>
<wgt id='1469'> +4.2714983E-01 </wgt>
<wgt id='1470'> +4.2496436E-01 </wgt>
<wgt id='1471'> +4.2532180E-01 </wgt>
<wgt id='1472'> +4.2177123E-01 </wgt>
<wgt id='1473'> +4.2932650E-01 </wgt>
<wgt id='1474'> +4.3008947E-01 </wgt>
<wgt id='1475'> +4.2068458E-01 </wgt>
<wgt id='1476'> +4.2375158E-01 </wgt>
<wgt id='1477'> +4.2811255E-01 </wgt>
<wgt id='1478'> +4.2473543E-01 </wgt>
<wgt id='1479'> +4.2609714E-01 </wgt>
<wgt id='1480'> +4.2412144E-01 </wgt>
<wgt id='1481'> +4.2592425E-01 </wgt>
<wgt id='1482'> +4.2301950E-01 </wgt>
<wgt id='1483'> +4.2668455E-01 </wgt>
<wgt id='1484'> +4.1728168E-01 </wgt>
<wgt id='1485'> +4.3795318E-01 </wgt>
<wgt id='1486'> +4.2461959E-01 </wgt>
<wgt id='1487'> +4.2443552E-01 </wgt>
<wgt id='1488'> +4.2310870E-01 </wgt>
<wgt id='1489'> +4.3065536E-01 </wgt>
<wgt id='1490'> +4.2774691E-01 </wgt>
<wgt id='1491'> +4.2296511E-01 </wgt>
<wgt id='1492'> +4.3296461E-01 </wgt>
<wgt id='1493'> +4.2314375E-01 </wgt>
<wgt id='1494'> +4.1193669E-01 </wgt>
<wgt id='1495'> +4.0710984E-01 </wgt>
<wgt id='1496'> +4.0887030E-01 </wgt>
<wgt id='1497'> +4.1047238E-01 </wgt>
<wgt id='1498'> +4.1336093E-01 </wgt>
<wgt id='1499'> +4.1200389E-01 </wgt>
<wgt id='1500'> +4.0243279E-01 </wgt>
<wgt id='1501'> +4.0488617E-01 </wgt>
<wgt id='1502'> +4.0715257E-01 </wgt>
<wgt id='1503'> +4.0897855E-01 </wgt>
<wgt id='1504'> +4.1057124E-01 </wgt>
<wgt id='1505'> +4.1345261E-01 </wgt>
<wgt id='1506'> +4.1462545E-01 </wgt>
<wgt id='1507'> +4.1583613E-01 </wgt>
<wgt id='1508'> +4.1200389E-01 </wgt>
<wgt id='1509'> +4.1243447E-01 </wgt>
<wgt id='1510'> +4.1221289E-01 </wgt>
<wgt id='1511'> +4.1182314E-01 </wgt>
<wgt id='1512'> +4.1183106E-01 </wgt>
<wgt id='1513'> +3.9574819E-01 </wgt>
<wgt id='1514'> +3.9378884E-01 </wgt>
<wgt id='1515'> +3.9822674E-01 </wgt>
<wgt id='1516'> +3.9416502E-01 </wgt>
<wgt id='1517'> +3.9727779E-01 </wgt>
<wgt id='1518'> +3.9820317E-01 </wgt>
<wgt id='1519'> +3.9472323E-01 </wgt>
<wgt id='1520'> +3.9269715E-01 </wgt>
<wgt id='1521'> +3.9880737E-01 </wgt>
<wgt id='1522'> +3.9285541E-01 </wgt>
<wgt id='1523'> +3.9854008E-01 </wgt>
<wgt id='1524'> +4.0319354E-01 </wgt>
<wgt id='1525'> +3.9252073E-01 </wgt>
<wgt id='1526'> +3.9377115E-01 </wgt>
<wgt id='1527'> +3.9811397E-01 </wgt>
<wgt id='1528'> +3.9394723E-01 </wgt>
<wgt id='1529'> +3.9767864E-01 </wgt>
<wgt id='1530'> +3.9017318E-01 </wgt>
<wgt id='1531'> +3.9885806E-01 </wgt>
<wgt id='1532'> +3.9508236E-01 </wgt>
<wgt id='1533'> +3.9662491E-01 </wgt>
<wgt id='1534'> +3.8976714E-01 </wgt>
<wgt id='1535'> +3.9992475E-01 </wgt>
<wgt id='1536'> +3.9513788E-01 </wgt>
<wgt id='1537'> +3.9634880E-01 </wgt>
<wgt id='1538'> +3.9926237E-01 </wgt>
<wgt id='1539'> +3.8694196E-01 </wgt>
<wgt id='1540'> +3.9582512E-01 </wgt>
<wgt id='1541'> +3.9555980E-01 </wgt>
<wgt id='1542'> +3.9553366E-01 </wgt>
<wgt id='1543'> +3.9664470E-01 </wgt>
<wgt id='1544'> +4.0024079E-01 </wgt>
<wgt id='1545'> +3.8728767E-01 </wgt>
<wgt id='1546'> +3.9550166E-01 </wgt>
<wgt id='1547'> +3.9826863E-01 </wgt>
<wgt id='1548'> +3.9725911E-01 </wgt>
<wgt id='1549'> +3.9525435E-01 </wgt>
<wgt id='1550'> +3.9421704E-01 </wgt>
<wgt id='1551'> +3.9798024E-01 </wgt>
<wgt id='1552'> +3.9333715E-01 </wgt>
<wgt id='1553'> +3.9685571E-01 </wgt>
<wgt id='1554'> +4.0252621E-01 </wgt>
<wgt id='1555'> +3.8451949E-01 </wgt>
<wgt id='1556'> +3.9494311E-01 </wgt>
<wgt id='1557'> +4.0355257E-01 </wgt>
<wgt id='1558'> +3.9119676E-01 </wgt>
<wgt id='1559'> +3.9990366E-01 </wgt>
<wgt id='1560'> +4.0078543E-01 </wgt>
<wgt id='1561'> +3.9331360E-01 </wgt>
<wgt id='1562'> +3.9255295E-01 </wgt>
<wgt id='1563'> +3.9674518E-01 </wgt>
<wgt id='1564'> +3.9574819E-01 </wgt>
<wgt id='1565'> +3.9427215E-01 </wgt>
<wgt id='1566'> +3.9649512E-01 </wgt>
<wgt id='1567'> +3.9570797E-01 </wgt>
<wgt id='1568'> +3.8679186E-01 </wgt>
<wgt id='1569'> +3.8939830E-01 </wgt>
<wgt id='1570'> +3.9135934E-01 </wgt>
<wgt id='1571'> +3.9236277E-01 </wgt>
<wgt id='1572'> +3.9433750E-01 </wgt>
<wgt id='1573'> +3.9682679E-01 </wgt>
<wgt id='1574'> +3.9717616E-01 </wgt>
<wgt id='1575'> +3.9815920E-01 </wgt>
<wgt id='1576'> +3.9570797E-01 </wgt>
<wgt id='1577'> +3.9612580E-01 </wgt>
<wgt id='1578'> +3.9578202E-01 </wgt>
<wgt id='1579'> +3.9556832E-01 </wgt>
<wgt id='1580'> +3.9543158E-01 </wgt>
<wgt id='1581'> +3.9354629E-01 </wgt>
<wgt id='1582'> +3.9289799E-01 </wgt>
<wgt id='1583'> +4.0218106E-01 </wgt>
<wgt id='1584'> +3.9312718E-01 </wgt>
<wgt id='1585'> +3.9336611E-01 </wgt>
<wgt id='1586'> +3.9158157E-01 </wgt>
<wgt id='1587'> +3.9537191E-01 </wgt>
<wgt id='1588'> +3.9095173E-01 </wgt>
<wgt id='1589'> +3.9406164E-01 </wgt>
<wgt id='1590'> +3.7931090E-01 </wgt>
<wgt id='1591'> +3.9239060E-01 </wgt>
<wgt id='1592'> +3.9443223E-01 </wgt>
<wgt id='1593'> +3.9233446E-01 </wgt>
<wgt id='1594'> +3.9277986E-01 </wgt>
<wgt id='1595'> +3.9275938E-01 </wgt>
<wgt id='1596'> +3.9420579E-01 </wgt>
<wgt id='1597'> +3.9323566E-01 </wgt>
<wgt id='1598'> +3.9775871E-01 </wgt>
<wgt id='1599'> +3.9446323E-01 </wgt>
<wgt id='1600'> +3.8747472E-01 </wgt>
<wgt id='1601'> +3.9225525E-01 </wgt>
<wgt id='1602'> +3.9421075E-01 </wgt>
<wgt id='1603'> +3.9154659E-01 </wgt>
<wgt id='1604'> +3.9433728E-01 </wgt>
<wgt id='1605'> +3.9673778E-01 </wgt>
<wgt id='1606'> +3.9204151E-01 </wgt>
<wgt id='1607'> +3.9531881E-01 </wgt>
<wgt id='1608'> +3.9012817E-01 </wgt>
<wgt id='1609'> +3.9381329E-01 </wgt>
<wgt id='1610'> +3.9245075E-01 </wgt>
<wgt id='1611'> +3.9622617E-01 </wgt>
<wgt id='1612'> +3.9201139E-01 </wgt>
<wgt id='1613'> +3.9140060E-01 </wgt>
<wgt id='1614'> +3.9309737E-01 </wgt>
<wgt id='1615'> +3.9182129E-01 </wgt>
<wgt id='1616'> +3.9365954E-01 </wgt>
<wgt id='1617'> +3.9243110E-01 </wgt>
<wgt id='1618'> +3.9076246E-01 </wgt>
<wgt id='1619'> +3.9203503E-01 </wgt>
<wgt id='1620'> +3.9303101E-01 </wgt>
<wgt id='1621'> +3.9557048E-01 </wgt>
<wgt id='1622'> +3.8982968E-01 </wgt>
<wgt id='1623'> +3.9059049E-01 </wgt>
<wgt id='1624'> +3.9390378E-01 </wgt>
<wgt id='1625'> +3.9083246E-01 </wgt>
<wgt id='1626'> +3.9367109E-01 </wgt>
<wgt id='1627'> +3.9238931E-01 </wgt>
<wgt id='1628'> +3.9398520E-01 </wgt>
<wgt id='1629'> +3.9036490E-01 </wgt>
<wgt id='1630'> +3.9032356E-01 </wgt>
<wgt id='1631'> +3.9309320E-01 </wgt>
<wgt id='1632'> +3.9193205E-01 </wgt>
<wgt id='1633'> +3.9338688E-01 </wgt>
<wgt id='1634'> +3.9227357E-01 </wgt>
<wgt id='1635'> +3.9121810E-01 </wgt>
<wgt id='1636'> +3.9224505E-01 </wgt>
<wgt id='1637'> +3.9229577E-01 </wgt>
<wgt id='1638'> +3.8890043E-01 </wgt>
<wgt id='1639'> +3.9091669E-01 </wgt>
<wgt id='1640'> +3.9257143E-01 </wgt>
<wgt id='1641'> +3.9253672E-01 </wgt>
<wgt id='1642'> +3.8874643E-01 </wgt>
<wgt id='1643'> +3.9449105E-01 </wgt>
<wgt id='1644'> +3.9465726E-01 </wgt>
<wgt id='1645'> +3.9310547E-01 </wgt>
<wgt id='1646'> +3.8885563E-01 </wgt>
<wgt id='1647'> +3.9951710E-01 </wgt>
<wgt id='1648'> +3.9507909E-01 </wgt>
<wgt id='1649'> +3.8952279E-01 </wgt>
<wgt id='1650'> +3.9439838E-01 </wgt>
<wgt id='1651'> +3.9060471E-01 </wgt>
<wgt id='1652'> +3.9282136E-01 </wgt>
<wgt id='1653'> +3.9275568E-01 </wgt>
<wgt id='1654'> +3.9308159E-01 </wgt>
<wgt id='1655'> +3.9022436E-01 </wgt>
<wgt id='1656'> +3.9376719E-01 </wgt>
<wgt id='1657'> +3.9047479E-01 </wgt>
<wgt id='1658'> +3.9239715E-01 </wgt>
<wgt id='1659'> +3.9072386E-01 </wgt>
<wgt id='1660'> +3.9324031E-01 </wgt>
<wgt id='1661'> +3.9334344E-01 </wgt>
<wgt id='1662'> +3.9303965E-01 </wgt>
<wgt id='1663'> +3.9324496E-01 </wgt>
<wgt id='1664'> +3.8994164E-01 </wgt>
<wgt id='1665'> +3.9075604E-01 </wgt>
<wgt id='1666'> +3.9258789E-01 </wgt>
<wgt id='1667'> +3.9138588E-01 </wgt>
<wgt id='1668'> +3.9241126E-01 </wgt>
<wgt id='1669'> +3.9121385E-01 </wgt>
<wgt id='1670'> +3.9522503E-01 </wgt>
<wgt id='1671'> +3.9134528E-01 </wgt>
<wgt id='1672'> +3.9087949E-01 </wgt>
<wgt id='1673'> +3.9233223E-01 </wgt>
<wgt id='1674'> +3.9116787E-01 </wgt>
<wgt id='1675'> +3.9059198E-01 </wgt>
<wgt id='1676'> +3.8935051E-01 </wgt>
<wgt id='1677'> +3.9241753E-01 </wgt>
<wgt id='1678'> +3.9292792E-01 </wgt>
<wgt id='1679'> +3.9238258E-01 </wgt>
<wgt id='1680'> +3.9161449E-01 </wgt>
<wgt id='1681'> +3.9351684E-01 </wgt>
<wgt id='1682'> +3.9055385E-01 </wgt>
<wgt id='1683'> +3.9058082E-01 </wgt>
<wgt id='1684'> +3.9256178E-01 </wgt>
<wgt id='1685'> +3.9370765E-01 </wgt>
<wgt id='1686'> +3.9261446E-01 </wgt>
<wgt id='1687'> +3.9301242E-01 </wgt>
<wgt id='1688'> +3.9336710E-01 </wgt>
<wgt id='1689'> +3.9260129E-01 </wgt>
<wgt id='1690'> +3.9283923E-01 </wgt>
<wgt id='1691'> +3.9123612E-01 </wgt>
<wgt id='1692'> +3.9315357E-01 </wgt>
<wgt id='1693'> +3.9071127E-01 </wgt>
<wgt id='1694'> +3.9186232E-01 </wgt>
<wgt id='1695'> +3.9237205E-01 </wgt>
<wgt id='1696'> +3.9254255E-01 </wgt>
<wgt id='1697'> +3.9198400E-01 </wgt>
<wgt id='1698'> +3.9191698E-01 </wgt>
<wgt id='1699'> +3.8968497E-01 </wgt>
<wgt id='1700'> +3.9296452E-01 </wgt>
<wgt id='1701'> +3.9277295E-01 </wgt>
<wgt id='1702'> +3.9150359E-01 </wgt>
<wgt id='1703'> +3.9046970E-01 </wgt>
<wgt id='1704'> +3.9299918E-01 </wgt>
<wgt id='1705'> +3.9070890E-01 </wgt>
<wgt id='1706'> +3.9201572E-01 </wgt>
<wgt id='1707'> +3.9180160E-01 </wgt>
<wgt id='1708'> +3.9167053E-01 </wgt>
<wgt id='1709'> +3.9263476E-01 </wgt>
<wgt id='1710'> +3.9062642E-01 </wgt>
<wgt id='1711'> +3.9220808E-01 </wgt>
<wgt id='1712'> +3.9247118E-01 </wgt>
<wgt id='1713'> +3.8896189E-01 </wgt>
<wgt id='1714'> +3.9265576E-01 </wgt>
<wgt id='1715'> +4.2452407E-01 </wgt>
<wgt id='1716'> +4.5097975E-01 </wgt>
<wgt id='1717'> +4.3974025E-01 </wgt>
<wgt id='1718'> +4.2270187E-01 </wgt>
<wgt id='1719'> +4.1886077E-01 </wgt>
<wgt id='1720'> +4.3191826E-01 </wgt>
<wgt id='1721'> +4.4383235E-01 </wgt>
<wgt id='1722'> +4.4225494E-01 </wgt>
<wgt id='1723'> +3.9466597E-01 </wgt>
<wgt id='1724'> +4.2545298E-01 </wgt>
<wgt id='1725'> +4.2970506E-01 </wgt>
<wgt id='1726'> +4.4625801E-01 </wgt>
<wgt id='1727'> +4.3440745E-01 </wgt>
<wgt id='1728'> +4.2129998E-01 </wgt>
<wgt id='1729'> +4.1021352E-01 </wgt>
<wgt id='1730'> +4.4392934E-01 </wgt>
<wgt id='1731'> +4.6150677E-01 </wgt>
<wgt id='1732'> +4.2379216E-01 </wgt>
<wgt id='1733'> +4.1901840E-01 </wgt>
<wgt id='1734'> +4.1969489E-01 </wgt>
<wgt id='1735'> +3.9567463E-01 </wgt>
<wgt id='1736'> +3.9405570E-01 </wgt>
<wgt id='1737'> +4.2569421E-01 </wgt>
<wgt id='1738'> +4.1021060E-01 </wgt>
<wgt id='1739'> +4.2500407E-01 </wgt>
<wgt id='1740'> +4.0866928E-01 </wgt>
<wgt id='1741'> +4.3248020E-01 </wgt>
<wgt id='1742'> +4.1199509E-01 </wgt>
<wgt id='1743'> +4.0706005E-01 </wgt>
<wgt id='1744'> +4.1280985E-01 </wgt>
<wgt id='1745'> +3.9114526E-01 </wgt>
<wgt id='1746'> +4.5374131E-01 </wgt>
<wgt id='1747'> +3.9561367E-01 </wgt>
<wgt id='1748'> +4.3153096E-01 </wgt>
<wgt id='1749'> +4.1657638E-01 </wgt>
<wgt id='1750'> +4.4529211E-01 </wgt>
<wgt id='1751'> +4.2399638E-01 </wgt>
<wgt id='1752'> +4.3937739E-01 </wgt>
<wgt id='1753'> +4.3493728E-01 </wgt>
<wgt id='1754'> +3.9200884E-01 </wgt>
<wgt id='1755'> +4.0385568E-01 </wgt>
<wgt id='1756'> +4.3576413E-01 </wgt>
<wgt id='1757'> +4.3792522E-01 </wgt>
<wgt id='1758'> +4.3213914E-01 </wgt>
<wgt id='1759'> +4.1889315E-01 </wgt>
<wgt id='1760'> +4.1914563E-01 </wgt>
<wgt id='1761'> +4.1136042E-01 </wgt>
<wgt id='1762'> +4.3440745E-01 </wgt>
<wgt id='1763'> +4.3565930E-01 </wgt>
<wgt id='1764'> +4.4525489E-01 </wgt>
<wgt id='1765'> +4.1390562E-01 </wgt>
<wgt id='1766'> +4.1621189E-01 </wgt>
<wgt id='1767'> +4.4695213E-01 </wgt>
<wgt id='1768'> +4.5600251E-01 </wgt>
<wgt id='1769'> +4.2471057E-01 </wgt>
<wgt id='1770'> +4.4054353E-01 </wgt>
<wgt id='1771'> +4.2877936E-01 </wgt>
<wgt id='1772'> +4.2156767E-01 </wgt>
<wgt id='1773'> +4.1578876E-01 </wgt>
<wgt id='1774'> +4.1569468E-01 </wgt>
<wgt id='1775'> +4.2520641E-01 </wgt>
<wgt id='1776'> +4.1709584E-01 </wgt>
<wgt id='1777'> +4.2582921E-01 </wgt>
<wgt id='1778'> +4.1821529E-01 </wgt>
<wgt id='1779'> +4.4159815E-01 </wgt>
<wgt id='1780'> +4.0155859E-01 </wgt>
<wgt id='1781'> +4.0532162E-01 </wgt>
<wgt id='1782'> +4.0293777E-01 </wgt>
<wgt id='1783'> +4.4962892E-01 </wgt>
<wgt id='1784'> +4.2179682E-01 </wgt>
<wgt id='1785'> +4.3398597E-01 </wgt>
<wgt id='1786'> +4.3462491E-01 </wgt>
<wgt id='1787'> +4.2100937E-01 </wgt>
<wgt id='1788'> +4.4388823E-01 </wgt>
<wgt id='1789'> +4.3505929E-01 </wgt>
<wgt id='1790'> +4.3878463E-01 </wgt>
<wgt id='1791'> +3.9769699E-01 </wgt>
<wgt id='1792'> +4.1547791E-01 </wgt>
<wgt id='1793'> +4.4186976E-01 </wgt>
<wgt id='1794'> +4.3902119E-01 </wgt>
<wgt id='1795'> +4.3292496E-01 </wgt>
<wgt id='1796'> +4.2703714E-01 </wgt>
<wgt id='1797'> +4.1427464E-01 </wgt>
<wgt id='1798'> +4.2446978E-01 </wgt>
<wgt id='1799'> +4.0237055E-01 </wgt>
<wgt id='1800'> +4.3426817E-01 </wgt>
<wgt id='1801'> +4.1131685E-01 </wgt>
<wgt id='1802'> +4.2487308E-01 </wgt>
<wgt id='1803'> +4.3361171E-01 </wgt>
<wgt id='1804'> +4.0346286E-01 </wgt>
<wgt id='1805'> +4.3467208E-01 </wgt>
<wgt id='1806'> +4.2761463E-01 </wgt>
<wgt id='1807'> +4.2984467E-01 </wgt>
<wgt id='1808'> +3.8983447E-01 </wgt>
<wgt id='1809'> +4.2219755E-01 </wgt>
<wgt id='1810'> +4.2364952E-01 </wgt>
<wgt id='1811'> +4.2488347E-01 </wgt>
<wgt id='1812'> +4.0764067E-01 </wgt>
<wgt id='1813'> +4.1485780E-01 </wgt>
<wgt id='1814'> +4.4778759E-01 </wgt>
<wgt id='1815'> +4.2657458E-01 </wgt>
<wgt id='1816'> +3.9643062E-01 </wgt>
<wgt id='1817'> +3.7544617E-01 </wgt>
<wgt id='1818'> +3.7327100E-01 </wgt>
<wgt id='1819'> +4.0378993E-01 </wgt>
<wgt id='1820'> +4.0258389E-01 </wgt>
<wgt id='1821'> +4.0667144E-01 </wgt>
<wgt id='1822'> +3.8367088E-01 </wgt>
<wgt id='1823'> +4.0603161E-01 </wgt>
<wgt id='1824'> +4.0870761E-01 </wgt>
<wgt id='1825'> +3.9816664E-01 </wgt>
<wgt id='1826'> +4.0175305E-01 </wgt>
<wgt id='1827'> +3.7367265E-01 </wgt>
<wgt id='1828'> +3.9462297E-01 </wgt>
<wgt id='1829'> +4.0127963E-01 </wgt>
<wgt id='1830'> +3.8634534E-01 </wgt>
<wgt id='1831'> +3.9843240E-01 </wgt>
<wgt id='1832'> +4.0064572E-01 </wgt>
<wgt id='1833'> +3.9425742E-01 </wgt>
<wgt id='1834'> +3.8974860E-01 </wgt>
<wgt id='1835'> +3.9637118E-01 </wgt>
<wgt id='1836'> +4.2405664E-01 </wgt>
<wgt id='1837'> +3.9257721E-01 </wgt>
<wgt id='1838'> +4.1452141E-01 </wgt>
<wgt id='1839'> +4.1407864E-01 </wgt>
<wgt id='1840'> +4.2585538E-01 </wgt>
<wgt id='1841'> +4.0159372E-01 </wgt>
<wgt id='1842'> +4.0029065E-01 </wgt>
<wgt id='1843'> +3.9966472E-01 </wgt>
<wgt id='1844'> +3.9232474E-01 </wgt>
<wgt id='1845'> +3.9861210E-01 </wgt>
<wgt id='1846'> +4.1217039E-01 </wgt>
<wgt id='1847'> +4.2492545E-01 </wgt>
<wgt id='1848'> +3.9943281E-01 </wgt>
<wgt id='1849'> +3.9948285E-01 </wgt>
<wgt id='1850'> +3.9901478E-01 </wgt>
<wgt id='1851'> +4.0979941E-01 </wgt>
<wgt id='1852'> +3.8958829E-01 </wgt>
<wgt id='1853'> +4.0925074E-01 </wgt>
<wgt id='1854'> +4.0232252E-01 </wgt>
<wgt id='1855'> +3.9750286E-01 </wgt>
<wgt id='1856'> +3.9335047E-01 </wgt>
<wgt id='1857'> +3.7929862E-01 </wgt>
<wgt id='1858'> +3.8201774E-01 </wgt>
<wgt id='1859'> +4.0974325E-01 </wgt>
<wgt id='1860'> +3.9178366E-01 </wgt>
<wgt id='1861'> +3.8517725E-01 </wgt>
<wgt id='1862'> +3.8586341E-01 </wgt>
<wgt id='1863'> +3.8150395E-01 </wgt>
<wgt id='1864'> +4.0735738E-01 </wgt>
<wgt id='1865'> +4.0537792E-01 </wgt>
<wgt id='1866'> +3.8714374E-01 </wgt>
<wgt id='1867'> +3.9128200E-01 </wgt>
<wgt id='1868'> +3.8783936E-01 </wgt>
<wgt id='1869'> +4.1547946E-01 </wgt>
<wgt id='1870'> +3.9684999E-01 </wgt>
<wgt id='1871'> +4.0243732E-01 </wgt>
<wgt id='1872'> +3.8134318E-01 </wgt>
<wgt id='1873'> +3.9190602E-01 </wgt>
<wgt id='1874'> +3.7048957E-01 </wgt>
<wgt id='1875'> +4.0861192E-01 </wgt>
<wgt id='1876'> +3.9456883E-01 </wgt>
<wgt id='1877'> +3.9299990E-01 </wgt>
<wgt id='1878'> +3.9005060E-01 </wgt>
<wgt id='1879'> +3.8011507E-01 </wgt>
<wgt id='1880'> +3.8014444E-01 </wgt>
<wgt id='1881'> +3.9494468E-01 </wgt>
<wgt id='1882'> +4.0775390E-01 </wgt>
<wgt id='1883'> +4.2682848E-01 </wgt>
<wgt id='1884'> +3.9896160E-01 </wgt>
<wgt id='1885'> +4.0942648E-01 </wgt>
<wgt id='1886'> +4.0166205E-01 </wgt>
<wgt id='1887'> +3.8949802E-01 </wgt>
<wgt id='1888'> +3.8441486E-01 </wgt>
<wgt id='1889'> +3.7262814E-01 </wgt>
<wgt id='1890'> +3.9501302E-01 </wgt>
<wgt id='1891'> +3.8405522E-01 </wgt>
<wgt id='1892'> +3.8285395E-01 </wgt>
<wgt id='1893'> +3.9848442E-01 </wgt>
<wgt id='1894'> +3.9707609E-01 </wgt>
<wgt id='1895'> +3.8603953E-01 </wgt>
<wgt id='1896'> +4.0348369E-01 </wgt>
<wgt id='1897'> +3.9088384E-01 </wgt>
<wgt id='1898'> +3.9967751E-01 </wgt>
<wgt id='1899'> +3.9284229E-01 </wgt>
<wgt id='1900'> +4.1347628E-01 </wgt>
<wgt id='1901'> +3.9162435E-01 </wgt>
<wgt id='1902'> +3.9107414E-01 </wgt>
<wgt id='1903'> +3.7490144E-01 </wgt>
<wgt id='1904'> +3.8201404E-01 </wgt>
<wgt id='1905'> +3.8882925E-01 </wgt>
<wgt id='1906'> +4.1325942E-01 </wgt>
<wgt id='1907'> +3.9503731E-01 </wgt>
<wgt id='1908'> +4.1577908E-01 </wgt>
<wgt id='1909'> +3.9518006E-01 </wgt>
<wgt id='1910'> +3.8452078E-01 </wgt>
<wgt id='1911'> +3.9170094E-01 </wgt>
<wgt id='1912'> +4.0376376E-01 </wgt>
<wgt id='1913'> +4.0435572E-01 </wgt>
<wgt id='1914'> +4.0331007E-01 </wgt>
<wgt id='1915'> +3.8061345E-01 </wgt>
<wgt id='1916'> +3.9988266E-01 </wgt>
<wgt id='1917'> +4.1463078E-01 </wgt>
<wgt id='1918'> +4.4184152E-01 </wgt>
<wgt id='1919'> +3.9643062E-01 </wgt>
<wgt id='1920'> +3.7544617E-01 </wgt>
<wgt id='1921'> +3.7327100E-01 </wgt>
<wgt id='1922'> +4.0378993E-01 </wgt>
<wgt id='1923'> +4.0258389E-01 </wgt>
<wgt id='1924'> +4.0667144E-01 </wgt>
<wgt id='1925'> +3.8367088E-01 </wgt>
<wgt id='1926'> +4.0603161E-01 </wgt>
<wgt id='1927'> +4.0870761E-01 </wgt>
<wgt id='1928'> +3.9816664E-01 </wgt>
<wgt id='1929'> +4.0175305E-01 </wgt>
<wgt id='1930'> +3.7367265E-01 </wgt>
<wgt id='1931'> +3.9462297E-01 </wgt>
<wgt id='1932'> +4.0127963E-01 </wgt>
<wgt id='1933'> +3.8634534E-01 </wgt>
<wgt id='1934'> +3.9843240E-01 </wgt>
<wgt id='1935'> +4.0064572E-01 </wgt>
<wgt id='1936'> +3.9425742E-01 </wgt>
<wgt id='1937'> +3.8974860E-01 </wgt>
<wgt id='1938'> +3.9637118E-01 </wgt>
<wgt id='1939'> +4.2405664E-01 </wgt>
<wgt id='1940'> +3.9257721E-01 </wgt>
<wgt id='1941'> +4.1452141E-01 </wgt>
<wgt id='1942'> +4.1407864E-01 </wgt>
<wgt id='1943'> +4.2585538E-01 </wgt>
<wgt id='1944'> +4.0159372E-01 </wgt>
<wgt id='1945'> +4.0029065E-01 </wgt>
<wgt id='1946'> +3.9966472E-01 </wgt>
<wgt id='1947'> +3.9232474E-01 </wgt>
<wgt id='1948'> +3.9861210E-01 </wgt>
<wgt id='1949'> +4.1217039E-01 </wgt>
<wgt id='1950'> +4.2492545E-01 </wgt>
<wgt id='1951'> +3.9943281E-01 </wgt>
<wgt id='1952'> +3.9948285E-01 </wgt>
<wgt id='1953'> +3.9901478E-01 </wgt>
<wgt id='1954'> +4.0979941E-01 </wgt>
<wgt id='1955'> +3.8958829E-01 </wgt>
<wgt id='1956'> +4.0925074E-01 </wgt>
<wgt id='1957'> +4.0232252E-01 </wgt>
<wgt id='1958'> +3.9750286E-01 </wgt>
<wgt id='1959'> +3.9335047E-01 </wgt>
<wgt id='1960'> +3.7929862E-01 </wgt>
<wgt id='1961'> +3.8201774E-01 </wgt>
<wgt id='1962'> +4.0974325E-01 </wgt>
<wgt id='1963'> +3.9178366E-01 </wgt>
<wgt id='1964'> +3.8517725E-01 </wgt>
<wgt id='1965'> +3.8586341E-01 </wgt>
<wgt id='1966'> +3.8150395E-01 </wgt>
<wgt id='1967'> +4.0735738E-01 </wgt>
<wgt id='1968'> +4.0537792E-01 </wgt>
<wgt id='1969'> +3.8714374E-01 </wgt>
<wgt id='1970'> +3.9128200E-01 </wgt>
<wgt id='1971'> +3.8783936E-01 </wgt>
<wgt id='1972'> +4.1547946E-01 </wgt>
<wgt id='1973'> +3.9684999E-01 </wgt>
<wgt id='1974'> +4.0243732E-01 </wgt>
<wgt id='1975'> +3.8134318E-01 </wgt>
<wgt id='1976'> +3.9190602E-01 </wgt>
<wgt id='1977'> +3.7048957E-01 </wgt>
<wgt id='1978'> +4.0861192E-01 </wgt>
<wgt id='1979'> +3.9456883E-01 </wgt>
<wgt id='1980'> +3.9299990E-01 </wgt>
<wgt id='1981'> +3.9005060E-01 </wgt>
<wgt id='1982'> +3.8011507E-01 </wgt>
<wgt id='1983'> +3.8014444E-01 </wgt>
<wgt id='1984'> +3.9494468E-01 </wgt>
<wgt id='1985'> +4.0775390E-01 </wgt>
<wgt id='1986'> +4.2682848E-01 </wgt>
<wgt id='1987'> +3.9896160E-01 </wgt>
<wgt id='1988'> +4.0942648E-01 </wgt>
<wgt id='1989'> +4.0166205E-01 </wgt>
<wgt id='1990'> +3.8949802E-01 </wgt>
<wgt id='1991'> +3.8441486E-01 </wgt>
<wgt id='1992'> +3.7262814E-01 </wgt>
<wgt id='1993'> +3.9501302E-01 </wgt>
<wgt id='1994'> +3.8405522E-01 </wgt>
<wgt id='1995'> +3.8285395E-01 </wgt>
<wgt id='1996'> +3.9848442E-01 </wgt>
<wgt id='1997'> +3.9707609E-01 </wgt>
<wgt id='1998'> +3.8603953E-01 </wgt>
<wgt id='1999'> +4.0348369E-01 </wgt>
<wgt id='2000'> +3.9088384E-01 </wgt>
<wgt id='2001'> +3.9967751E-01 </wgt>
<wgt id='2002'> +3.9284229E-01 </wgt>
<wgt id='2003'> +4.1347628E-01 </wgt>
<wgt id='2004'> +3.9162435E-01 </wgt>
<wgt id='2005'> +3.9107414E-01 </wgt>
<wgt id='2006'> +3.7490144E-01 </wgt>
<wgt id='2007'> +3.8201404E-01 </wgt>
<wgt id='2008'> +3.8882925E-01 </wgt>
<wgt id='2009'> +4.1325942E-01 </wgt>
<wgt id='2010'> +3.9503731E-01 </wgt>
<wgt id='2011'> +4.1577908E-01 </wgt>
<wgt id='2012'> +3.9518006E-01 </wgt>
<wgt id='2013'> +3.8452078E-01 </wgt>
<wgt id='2014'> +3.9170094E-01 </wgt>
<wgt id='2015'> +4.0376376E-01 </wgt>
<wgt id='2016'> +4.0435572E-01 </wgt>
<wgt id='2017'> +4.0331007E-01 </wgt>
<wgt id='2018'> +3.8061345E-01 </wgt>
<wgt id='2019'> +3.9988266E-01 </wgt>
<wgt id='2020'> +3.9309482E-01 </wgt>
<wgt id='2021'> +3.9666709E-01 </wgt>
<wgt id='2022'> +3.8517569E-01 </wgt>
</rwgt>
</event>
<event>
13      1 +3.9556008E-01 1.90809100e+02 7.81860800e-03 1.11745000e-01
       21 -1    0    0  502  503 +0.0000000000e+00 +0.0000000000e+00 +1.6636861176e+03 1.6636861176e+03 0.0000000000e+00 0.0000e+00 1.0000e+00
        2 -1    0    0  501    0 +0.0000000000e+00 +0.0000000000e+00 -1.7836801134e+03 1.7836801134e+03 2.5500000000e-03 0.0000e+00 -1.0000e+00
  8000001  2    1    2  502    0 +2.1453874284e+01 -1.0387526315e+02 -3.0800762014e+02 6.8272969555e+02 6.0000067008e+02 0.0000e+00 0.0000e+00
        1  1    1    2  501    0 -2.0552912440e+01 +4.3740634742e+01 -1.2872416165e+03 1.2881485336e+03 5.0400000000e-03 0.0000e+00 -1.0000e+00
       -5  1    1    2    0  503 -9.0096184319e-01 +6.0134628404e+01 +1.4752552408e+03 1.4764880019e+03 4.6700000000e+00 0.0000e+00 1.0000e+00
        6  2    3    3  502    0 -3.8188581278e+01 -2.7241996143e+02 -1.0664392936e+01 3.2525218267e+02 1.7321734880e+02 0.0000e+00 0.0000e+00
        5  1    6    6  502    0 -7.6363927918e+01 -1.4087546082e+02 -3.9502880093e+01 1.6510491024e+02 4.6700000000e+00 0.0000e+00 -1.0000e+00
       24  2    6    6    0    0 +3.8175346640e+01 -1.3154450061e+02 +2.8838487157e+01 1.6014727243e+02 7.7808597161e+01 0.0000e+00 0.0000e+00
        4  1    8    8  504    0 +2.6717451400e+01 -1.3908023553e+02 +1.8206248663e+01 1.4279430841e+02 1.2700000000e+00 0.0000e+00 -1.0000e+00
       -3  1    8    8    0  504 +1.1457895239e+01 +7.5357349114e+00 +1.0632238493e+01 1.7352964022e+01 1.0100000000e-01 0.0000e+00 1.0000e+00
       23  2    3    3    0    0 +5.9642455562e+01 +1.6854469829e+02 -2.9734322721e+02 3.5747751288e+02 8.6096687628e+01 0.0000e+00 0.0000e+00
        4  1   11   11  505    0 +6.6701979329e+01 +6.2370956233e+01 -1.5228415183e+02 1.7757073527e+02 1.2700000000e+00 0.0000e+00 -1.0000e+00
       -4  1   11   11    0  505 -7.0595237669e+00 +1.0617374206e+02 -1.4505907538e+02 1.7990677760e+02 1.2700000000e+00 0.0000e+00 1.0000e+00
<mgrwt>
<rscale>  1 0.96028941e+02</rscale>
<asrwt>0</asrwt>
<pdfrwt beam="1">  1       21 0.25595171e+00 0.19080906e+03</pdfrwt>
<pdfrwt beam="2">  1        2 0.27441232e+00 0.48328720e+02</pdfrwt>
<totfact> 0.71731871e+00</totfact>
</mgrwt>
<rwgt>
<wgt id='1001'> +3.9556008E-01 </wgt>
<wgt id='1002'> +2.0580496E-01 </wgt>
<wgt id='1003'> +2.0578349E-01 </wgt>
<wgt id='1004'> +2.6176241E-01 </wgt>
<wgt id='1005'> +1.2266441E-01 </wgt>
<wgt id='1006'> +3.5685188E-01 </wgt>
<wgt id='1007'> +1.9003303E-01 </wgt>
<wgt id='1008'> +1.9001376E-01 </wgt>
<wgt id='1009'> +2.3995353E-01 </wgt>
<wgt id='1010'> +1.1480996E-01 </wgt>
<wgt id='1011'> +4.4404562E-01 </wgt>
<wgt id='1012'> +2.2451097E-01 </wgt>
<wgt id='1013'> +2.2448672E-01 </wgt>
<wgt id='1014'> +2.8806168E-01 </wgt>
<wgt id='1015'> +1.3169760E-01 </wgt>
<wgt id='1016'> +3.3249432E-01 </wgt>
<wgt id='1017'> +1.7871965E-01 </wgt>
<wgt id='1018'> +1.7870179E-01 </wgt>
<wgt id='1019'> +2.2448672E-01 </wgt>
<wgt id='1020'> +1.0888679E-01 </wgt>
<wgt id='1021'> +2.9995753E-01 </wgt>
<wgt id='1022'> +1.6502339E-01 </wgt>
<wgt id='1023'> +1.6500742E-01 </wgt>
<wgt id='1024'> +2.0578349E-01 </wgt>
<wgt id='1025'> +1.0191455E-01 </wgt>
<wgt id='1026'> +3.7324961E-01 </wgt>
<wgt id='1027'> +1.9496381E-01 </wgt>
<wgt id='1028'> +1.9494363E-01 </wgt>
<wgt id='1029'> +2.4704090E-01 </wgt>
<wgt id='1030'> +1.1690538E-01 </wgt>
<wgt id='1031'> +4.7926953E-01 </wgt>
<wgt id='1032'> +2.3998007E-01 </wgt>
<wgt id='1033'> +2.3995353E-01 </wgt>
<wgt id='1034'> +3.0932626E-01 </wgt>
<wgt id='1035'> +1.3931758E-01 </wgt>
<wgt id='1036'> +4.3236979E-01 </wgt>
<wgt id='1037'> +2.2158910E-01 </wgt>
<wgt id='1038'> +2.2156527E-01 </wgt>
<wgt id='1039'> +2.8355458E-01 </wgt>
<wgt id='1040'> +1.3039679E-01 </wgt>
<wgt id='1041'> +5.3801569E-01 </wgt>
<wgt id='1042'> +2.6179230E-01 </wgt>
<wgt id='1043'> +2.6176241E-01 </wgt>
<wgt id='1044'> +3.4040427E-01 </wgt>
<wgt id='1045'> +1.4957713E-01 </wgt>
<wgt id='1046'> +3.9556008E-01 </wgt>
<wgt id='1047'> +3.9556008E-01 </wgt>
<wgt id='1048'> +3.9556008E-01 </wgt>
<wgt id='1049'> +3.9470615E-01 </wgt>
<wgt id='1050'> +3.9575327E-01 </wgt>
<wgt id='1051'> +3.9653122E-01 </wgt>
<wgt id='1052'> +3.9484838E-01 </wgt>
<wgt id='1053'> +3.9362505E-01 </wgt>
<wgt id='1054'> +3.9567756E-01 </wgt>
<wgt id='1055'> +3.9316616E-01 </wgt>
<wgt id='1056'> +3.9227085E-01 </wgt>
<wgt id='1057'> +3.9306014E-01 </wgt>
<wgt id='1058'> +3.9379968E-01 </wgt>
<wgt id='1059'> +3.9944650E-01 </wgt>
<wgt id='1060'> +3.9547824E-01 </wgt>
<wgt id='1061'> +3.9589714E-01 </wgt>
<wgt id='1062'> +3.9578868E-01 </wgt>
<wgt id='1063'> +3.9632610E-01 </wgt>
<wgt id='1064'> +3.9601800E-01 </wgt>
<wgt id='1065'> +3.9814385E-01 </wgt>
<wgt id='1066'> +3.9359987E-01 </wgt>
<wgt id='1067'> +3.9405106E-01 </wgt>
<wgt id='1068'> +3.9621063E-01 </wgt>
<wgt id='1069'> +3.9525830E-01 </wgt>
<wgt id='1070'> +3.9787818E-01 </wgt>
<wgt id='1071'> +3.9407750E-01 </wgt>
<wgt id='1072'> +3.9953901E-01 </wgt>
<wgt id='1073'> +3.9219428E-01 </wgt>
<wgt id='1074'> +3.9372890E-01 </wgt>
<wgt id='1075'> +3.9448218E-01 </wgt>
<wgt id='1076'> +3.9405261E-01 </wgt>
<wgt id='1077'> +3.9651082E-01 </wgt>
<wgt id='1078'> +3.9614544E-01 </wgt>
<wgt id='1079'> +3.9696728E-01 </wgt>
<wgt id='1080'> +3.9503836E-01 </wgt>
<wgt id='1081'> +3.9613945E-01 </wgt>
<wgt id='1082'> +3.9638709E-01 </wgt>
<wgt id='1083'> +3.9677573E-01 </wgt>
<wgt id='1084'> +3.9458929E-01 </wgt>
<wgt id='1085'> +3.9463870E-01 </wgt>
<wgt id='1086'> +3.9635010E-01 </wgt>
<wgt id='1087'> +3.9580326E-01 </wgt>
<wgt id='1088'> +3.9406801E-01 </wgt>
<wgt id='1089'> +3.9390055E-01 </wgt>
<wgt id='1090'> +3.9670566E-01 </wgt>
<wgt id='1091'> +3.9517563E-01 </wgt>
<wgt id='1092'> +3.9537483E-01 </wgt>
<wgt id='1093'> +3.9570338E-01 </wgt>
<wgt id='1094'> +3.9353550E-01 </wgt>
<wgt id='1095'> +3.9535717E-01 </wgt>
<wgt id='1096'> +3.9504172E-01 </wgt>
<wgt id='1097'> +3.9451145E-01 </wgt>
<wgt id='1098'> +3.9503738E-01 </wgt>
<wgt id='1099'> +3.9526426E-01 </wgt>
<wgt id='1100'> +3.9636477E-01 </wgt>
<wgt id='1101'> +3.9515453E-01 </wgt>
<wgt id='1102'> +3.9498037E-01 </wgt>
<wgt id='1103'> +3.9458241E-01 </wgt>
<wgt id='1104'> +3.9586708E-01 </wgt>
<wgt id='1105'> +3.9568035E-01 </wgt>
<wgt id='1106'> +3.9650870E-01 </wgt>
<wgt id='1107'> +3.9565817E-01 </wgt>
<wgt id='1108'> +3.9536394E-01 </wgt>
<wgt id='1109'> +3.9582335E-01 </wgt>
<wgt id='1110'> +3.9562266E-01 </wgt>
<wgt id='1111'> +3.9550739E-01 </wgt>
<wgt id='1112'> +3.9575300E-01 </wgt>
<wgt id='1113'> +3.9552969E-01 </wgt>
<wgt id='1114'> +3.9418511E-01 </wgt>
<wgt id='1115'> +3.9494756E-01 </wgt>
<wgt id='1116'> +3.9705986E-01 </wgt>
<wgt id='1117'> +3.9579984E-01 </wgt>
<wgt id='1118'> +3.9621771E-01 </wgt>
<wgt id='1119'> +3.9523299E-01 </wgt>
<wgt id='1120'> +3.9438890E-01 </wgt>
<wgt id='1121'> +3.9617863E-01 </wgt>
<wgt id='1122'> +3.9516457E-01 </wgt>
<wgt id='1123'> +3.9573503E-01 </wgt>
<wgt id='1124'> +3.9545877E-01 </wgt>
<wgt id='1125'> +3.9552109E-01 </wgt>
<wgt id='1126'> +3.9582817E-01 </wgt>
<wgt id='1127'> +3.9546389E-01 </wgt>
<wgt id='1128'> +3.9538623E-01 </wgt>
<wgt id='1129'> +3.9505969E-01 </wgt>
<wgt id='1130'> +3.9574388E-01 </wgt>
<wgt id='1131'> +3.9660113E-01 </wgt>
<wgt id='1132'> +3.9529356E-01 </wgt>
<wgt id='1133'> +3.9593936E-01 </wgt>
<wgt id='1134'> +3.9533618E-01 </wgt>
<wgt id='1135'> +3.9577696E-01 </wgt>
<wgt id='1136'> +3.9555274E-01 </wgt>
<wgt id='1137'> +3.9518136E-01 </wgt>
<wgt id='1138'> +3.9590845E-01 </wgt>
<wgt id='1139'> +3.9586455E-01 </wgt>
<wgt id='1140'> +3.9623989E-01 </wgt>
<wgt id='1141'> +3.9505767E-01 </wgt>
<wgt id='1142'> +3.9570065E-01 </wgt>
<wgt id='1143'> +3.9604814E-01 </wgt>
<wgt id='1144'> +3.9534407E-01 </wgt>
<wgt id='1145'> +3.9570077E-01 </wgt>
<wgt id='1146'> +3.9577298E-01 </wgt>
<wgt id='1147'> +3.9581329E-01 </wgt>
<wgt id='1148'> +3.9556008E-01 </wgt>
<wgt id='1149'> +3.5034151E-01 </wgt>
<wgt id='1150'> +3.5568113E-01 </wgt>
<wgt id='1151'> +3.4283751E-01 </wgt>
<wgt id='1152'> +3.3039157E-01 </wgt>
<wgt id='1153'> +3.4547196E-01 </wgt>
<wgt id='1154'> +3.4378048E-01 </wgt>
<wgt id='1155'> +3.6160386E-01 </wgt>
<wgt id='1156'> +3.5292580E-01 </wgt>
<wgt id='1157'> +3.5234280E-01 </wgt>
<wgt id='1158'> +3.4367683E-01 </wgt>
<wgt id='1159'> +3.3408182E-01 </wgt>
<wgt id='1160'> +3.4256983E-01 </wgt>
<wgt id='1161'> +3.6952675E-01 </wgt>
<wgt id='1162'> +3.5145141E-01 </wgt>
<wgt id='1163'> +3.6136676E-01 </wgt>
<wgt id='1164'> +3.4986287E-01 </wgt>
<wgt id='1165'> +3.3508005E-01 </wgt>
<wgt id='1166'> +3.5068886E-01 </wgt>
<wgt id='1167'> +3.4746486E-01 </wgt>
<wgt id='1168'> +3.4161876E-01 </wgt>
<wgt id='1169'> +3.4344853E-01 </wgt>
<wgt id='1170'> +3.6099940E-01 </wgt>
<wgt id='1171'> +3.5048943E-01 </wgt>
<wgt id='1172'> +3.4544951E-01 </wgt>
<wgt id='1173'> +3.5684852E-01 </wgt>
<wgt id='1174'> +3.5411077E-01 </wgt>
<wgt id='1175'> +3.4761420E-01 </wgt>
<wgt id='1176'> +3.5174011E-01 </wgt>
<wgt id='1177'> +3.4972019E-01 </wgt>
<wgt id='1178'> +3.5368868E-01 </wgt>
<wgt id='1179'> +3.5133664E-01 </wgt>
<wgt id='1180'> +3.4179824E-01 </wgt>
<wgt id='1181'> +3.5696642E-01 </wgt>
<wgt id='1182'> +3.5803777E-01 </wgt>
<wgt id='1183'> +3.5396877E-01 </wgt>
<wgt id='1184'> +3.2023483E-01 </wgt>
<wgt id='1185'> +3.6588039E-01 </wgt>
<wgt id='1186'> +3.4476135E-01 </wgt>
<wgt id='1187'> +3.5775710E-01 </wgt>
<wgt id='1188'> +3.5700355E-01 </wgt>
<wgt id='1189'> +3.5363399E-01 </wgt>
<wgt id='1190'> +3.4534508E-01 </wgt>
<wgt id='1191'> +3.5835848E-01 </wgt>
<wgt id='1192'> +3.5105382E-01 </wgt>
<wgt id='1193'> +3.5529778E-01 </wgt>
<wgt id='1194'> +3.3958875E-01 </wgt>
<wgt id='1195'> +3.5759694E-01 </wgt>
<wgt id='1196'> +3.5518503E-01 </wgt>
<wgt id='1197'> +3.6266900E-01 </wgt>
<wgt id='1198'> +3.5608638E-01 </wgt>
<wgt id='1199'> +3.4657978E-01 </wgt>
<wgt id='1200'> +3.6562459E-01 </wgt>
<wgt id='1201'> +3.5975583E-01 </wgt>
<wgt id='1202'> +3.5046093E-01 </wgt>
<wgt id='1203'> +3.6318490E-01 </wgt>
<wgt id='1204'> +3.5291415E-01 </wgt>
<wgt id='1205'> +3.5302750E-01 </wgt>
<wgt id='1206'> +3.5272441E-01 </wgt>
<wgt id='1207'> +3.6899464E-01 </wgt>
<wgt id='1208'> +3.3907677E-01 </wgt>
<wgt id='1209'> +3.6190814E-01 </wgt>
<wgt id='1210'> +3.4708803E-01 </wgt>
<wgt id='1211'> +3.4306450E-01 </wgt>
<wgt id='1212'> +3.5327455E-01 </wgt>
<wgt id='1213'> +3.5714946E-01 </wgt>
<wgt id='1214'> +3.5410392E-01 </wgt>
<wgt id='1215'> +3.3452050E-01 </wgt>
<wgt id='1216'> +3.3404321E-01 </wgt>
<wgt id='1217'> +3.4846708E-01 </wgt>
<wgt id='1218'> +3.5024024E-01 </wgt>
<wgt id='1219'> +3.6195430E-01 </wgt>
<wgt id='1220'> +3.5048579E-01 </wgt>
<wgt id='1221'> +3.3353567E-01 </wgt>
<wgt id='1222'> +3.4679176E-01 </wgt>
<wgt id='1223'> +3.3755378E-01 </wgt>
<wgt id='1224'> +3.3821127E-01 </wgt>
<wgt id='1225'> +3.4075077E-01 </wgt>
<wgt id='1226'> +3.4926210E-01 </wgt>
<wgt id='1227'> +3.5340762E-01 </wgt>
<wgt id='1228'> +3.5001538E-01 </wgt>
<wgt id='1229'> +3.5370444E-01 </wgt>
<wgt id='1230'> +3.5823952E-01 </wgt>
<wgt id='1231'> +3.3508005E-01 </wgt>
<wgt id='1232'> +3.5255329E-01 </wgt>
<wgt id='1233'> +3.4527317E-01 </wgt>
<wgt id='1234'> +3.4385489E-01 </wgt>
<wgt id='1235'> +3.6770897E-01 </wgt>
<wgt id='1236'> +3.5491437E-01 </wgt>
<wgt id='1237'> +3.5394412E-01 </wgt>
<wgt id='1238'> +3.3270732E-01 </wgt>
<wgt id='1239'> +3.6111267E-01 </wgt>
<wgt id='1240'> +3.4532198E-01 </wgt>
<wgt id='1241'> +3.6626536E-01 </wgt>
<wgt id='1242'> +3.5021968E-01 </wgt>
<wgt id='1243'> +3.4594996E-01 </wgt>
<wgt id='1244'> +3.6072374E-01 </wgt>
<wgt id='1245'> +3.3759552E-01 </wgt>
<wgt id='1246'> +3.6689207E-01 </wgt>
<wgt id='1247'> +3.4224867E-01 </wgt>
<wgt id='1248'> +3.4270896E-01 </wgt>
<wgt id='1249'> +3.4548815E-01 </wgt>
<wgt id='1250'> +4.5016210E-01 </wgt>
<wgt id='1251'> +4.3794662E-01 </wgt>
<wgt id='1252'> +4.5423857E-01 </wgt>
<wgt id='1253'> +4.4920917E-01 </wgt>
<wgt id='1254'> +5.7208621E-01 </wgt>
<wgt id='1255'> +4.7618161E-01 </wgt>
<wgt id='1256'> +4.8050021E-01 </wgt>
<wgt id='1257'> +4.7372931E-01 </wgt>
<wgt id='1258'> +4.7564016E-01 </wgt>
<wgt id='1259'> +4.7644499E-01 </wgt>
<wgt id='1260'> +4.7701516E-01 </wgt>
<wgt id='1261'> +4.7511252E-01 </wgt>
<wgt id='1262'> +4.7673705E-01 </wgt>
<wgt id='1263'> +4.7582555E-01 </wgt>
<wgt id='1264'> +4.7620912E-01 </wgt>
<wgt id='1265'> +4.7618815E-01 </wgt>
<wgt id='1266'> +4.7674686E-01 </wgt>
<wgt id='1267'> +4.7565043E-01 </wgt>
<wgt id='1268'> +4.8188646E-01 </wgt>
<wgt id='1269'> +4.7054386E-01 </wgt>
<wgt id='1270'> +4.6861894E-01 </wgt>
<wgt id='1271'> +4.8497445E-01 </wgt>
<wgt id='1272'> +4.7367467E-01 </wgt>
<wgt id='1273'> +4.7816824E-01 </wgt>
<wgt id='1274'> +4.7939733E-01 </wgt>
<wgt id='1275'> +4.7232409E-01 </wgt>
<wgt id='1276'> +4.8842574E-01 </wgt>
<wgt id='1277'> +4.6423307E-01 </wgt>
<wgt id='1278'> +4.7331234E-01 </wgt>
<wgt id='1279'> +4.7859244E-01 </wgt>
<wgt id='1280'> +4.7637752E-01 </wgt>
<wgt id='1281'> +4.7610944E-01 </wgt>
<wgt id='1282'> +4.6393794E-01 </wgt>
<wgt id='1283'> +4.8755509E-01 </wgt>
<wgt id='1284'> +4.7951907E-01 </wgt>
<wgt id='1285'> +4.7351804E-01 </wgt>
<wgt id='1286'> +4.7962652E-01 </wgt>
<wgt id='1287'> +4.7600059E-01 </wgt>
<wgt id='1288'> +4.7842087E-01 </wgt>
<wgt id='1289'> +4.7506707E-01 </wgt>
<wgt id='1290'> +4.7713203E-01 </wgt>
<wgt id='1291'> +4.7586509E-01 </wgt>
<wgt id='1292'> +4.7808547E-01 </wgt>
<wgt id='1293'> +4.7379980E-01 </wgt>
<wgt id='1294'> +4.8537726E-01 </wgt>
<wgt id='1295'> +4.6733551E-01 </wgt>
<wgt id='1296'> +4.4542143E-01 </wgt>
<wgt id='1297'> +4.4677949E-01 </wgt>
<wgt id='1298'> +4.4433317E-01 </wgt>
<wgt id='1299'> +4.4313098E-01 </wgt>
<wgt id='1300'> +4.4797687E-01 </wgt>
<wgt id='1301'> +4.4407291E-01 </wgt>
<wgt id='1302'> +4.4742534E-01 </wgt>
<wgt id='1303'> +4.4527416E-01 </wgt>
<wgt id='1304'> +4.4551644E-01 </wgt>
<wgt id='1305'> +4.4585071E-01 </wgt>
<wgt id='1306'> +4.4483642E-01 </wgt>
<wgt id='1307'> +4.4745651E-01 </wgt>
<wgt id='1308'> +4.4417405E-01 </wgt>
<wgt id='1309'> +4.4557943E-01 </wgt>
<wgt id='1310'> +4.4522416E-01 </wgt>
<wgt id='1311'> +4.4898240E-01 </wgt>
<wgt id='1312'> +4.4413283E-01 </wgt>
<wgt id='1313'> +4.3690471E-01 </wgt>
<wgt id='1314'> +4.5642302E-01 </wgt>
<wgt id='1315'> +4.4683313E-01 </wgt>
<wgt id='1316'> +4.4416366E-01 </wgt>
<wgt id='1317'> +4.5622931E-01 </wgt>
<wgt id='1318'> +4.2813920E-01 </wgt>
<wgt id='1319'> +4.3632177E-01 </wgt>
<wgt id='1320'> +4.5152261E-01 </wgt>
<wgt id='1321'> +4.3871327E-01 </wgt>
<wgt id='1322'> +4.4880354E-01 </wgt>
<wgt id='1323'> +4.4332618E-01 </wgt>
<wgt id='1324'> +4.4833722E-01 </wgt>
<wgt id='1325'> +4.4409490E-01 </wgt>
<wgt id='1326'> +4.4812398E-01 </wgt>
<wgt id='1327'> +4.4342578E-01 </wgt>
<wgt id='1328'> +4.4627063E-01 </wgt>
<wgt id='1329'> +4.4630002E-01 </wgt>
<wgt id='1330'> +4.4490851E-01 </wgt>
<wgt id='1331'> +4.5117661E-01 </wgt>
<wgt id='1332'> +4.4301423E-01 </wgt>
<wgt id='1333'> +4.3415583E-01 </wgt>
<wgt id='1334'> +4.6305235E-01 </wgt>
<wgt id='1335'> +4.4857408E-01 </wgt>
<wgt id='1336'> +4.4468049E-01 </wgt>
<wgt id='1337'> +4.4542143E-01 </wgt>
<wgt id='1338'> +4.4718335E-01 </wgt>
<wgt id='1339'> +4.4658534E-01 </wgt>
<wgt id='1340'> +4.4597830E-01 </wgt>
<wgt id='1341'> +4.4514363E-01 </wgt>
<wgt id='1342'> +4.4472915E-01 </wgt>
<wgt id='1343'> +4.4433252E-01 </wgt>
<wgt id='1344'> +4.2331637E-01 </wgt>
<wgt id='1345'> +4.2546170E-01 </wgt>
<wgt id='1346'> +4.2115472E-01 </wgt>
<wgt id='1347'> +4.2731363E-01 </wgt>
<wgt id='1348'> +4.2037974E-01 </wgt>
<wgt id='1349'> +4.2267294E-01 </wgt>
<wgt id='1350'> +4.2385724E-01 </wgt>
<wgt id='1351'> +4.2332307E-01 </wgt>
<wgt id='1352'> +4.2330438E-01 </wgt>
<wgt id='1353'> +4.2470942E-01 </wgt>
<wgt id='1354'> +4.2231280E-01 </wgt>
<wgt id='1355'> +4.2299568E-01 </wgt>
<wgt id='1356'> +4.2355330E-01 </wgt>
<wgt id='1357'> +4.2463945E-01 </wgt>
<wgt id='1358'> +4.2251148E-01 </wgt>
<wgt id='1359'> +4.2161063E-01 </wgt>
<wgt id='1360'> +4.2754974E-01 </wgt>
<wgt id='1361'> +4.0994706E-01 </wgt>
<wgt id='1362'> +4.3525513E-01 </wgt>
<wgt id='1363'> +4.2047853E-01 </wgt>
<wgt id='1364'> +4.2692529E-01 </wgt>
<wgt id='1365'> +4.1998949E-01 </wgt>
<wgt id='1366'> +4.2483875E-01 </wgt>
<wgt id='1367'> +4.1791526E-01 </wgt>
<wgt id='1368'> +4.2605703E-01 </wgt>
<wgt id='1369'> +4.2981380E-01 </wgt>
<wgt id='1370'> +4.1798676E-01 </wgt>
<wgt id='1371'> +4.2203509E-01 </wgt>
<wgt id='1372'> +4.2565290E-01 </wgt>
<wgt id='1373'> +4.1459095E-01 </wgt>
<wgt id='1374'> +4.3044204E-01 </wgt>
<wgt id='1375'> +4.1806356E-01 </wgt>
<wgt id='1376'> +4.2507803E-01 </wgt>
<wgt id='1377'> +4.2099020E-01 </wgt>
<wgt id='1378'> +4.2736574E-01 </wgt>
<wgt id='1379'> +4.2064146E-01 </wgt>
<wgt id='1380'> +4.2756814E-01 </wgt>
<wgt id='1381'> +4.2897665E-01 </wgt>
<wgt id='1382'> +4.2342849E-01 </wgt>
<wgt id='1383'> +4.2299051E-01 </wgt>
<wgt id='1384'> +4.2660098E-01 </wgt>
<wgt id='1385'> +4.2331637E-01 </wgt>
<wgt id='1386'> +4.2485666E-01 </wgt>
<wgt id='1387'> +4.2431688E-01 </wgt>
<wgt id='1388'> +4.2372659E-01 </wgt>
<wgt id='1389'> +4.2295554E-01 </wgt>
<wgt id='1390'> +4.2252709E-01 </wgt>
<wgt id='1391'> +4.2219995E-01 </wgt>
<wgt id='1392'> +4.4438875E-01 </wgt>
<wgt id='1393'> +4.4465150E-01 </wgt>
<wgt id='1394'> +4.4410608E-01 </wgt>
<wgt id='1395'> +4.4458512E-01 </wgt>
<wgt id='1396'> +4.4421647E-01 </wgt>
<wgt id='1397'> +4.4663777E-01 </wgt>
<wgt id='1398'> +4.4219399E-01 </wgt>
<wgt id='1399'> +4.4725158E-01 </wgt>
<wgt id='1400'> +4.4087763E-01 </wgt>
<wgt id='1401'> +4.4266798E-01 </wgt>
<wgt id='1402'> +4.4650170E-01 </wgt>
<wgt id='1403'> +4.4364155E-01 </wgt>
<wgt id='1404'> +4.4590279E-01 </wgt>
<wgt id='1405'> +4.4393131E-01 </wgt>
<wgt id='1406'> +4.4501712E-01 </wgt>
<wgt id='1407'> +4.4475336E-01 </wgt>
<wgt id='1408'> +4.4413751E-01 </wgt>
<wgt id='1409'> +4.4570018E-01 </wgt>
<wgt id='1410'> +4.4285686E-01 </wgt>
<wgt id='1411'> +4.4326215E-01 </wgt>
<wgt id='1412'> +4.4523205E-01 </wgt>
<wgt id='1413'> +4.4539827E-01 </wgt>
<wgt id='1414'> +4.4326540E-01 </wgt>
<wgt id='1415'> +4.4435855E-01 </wgt>
<wgt id='1416'> +4.4410749E-01 </wgt>
<wgt id='1417'> +4.3658759E-01 </wgt>
<wgt id='1418'> +4.5410963E-01 </wgt>
<wgt id='1419'> +4.4335535E-01 </wgt>
<wgt id='1420'> +4.4458581E-01 </wgt>
<wgt id='1421'> +4.3654662E-01 </wgt>
<wgt id='1422'> +4.5394865E-01 </wgt>
<wgt id='1423'> +4.3047543E-01 </wgt>
<wgt id='1424'> +4.5547134E-01 </wgt>
<wgt id='1425'> +4.4537920E-01 </wgt>
<wgt id='1426'> +4.4306874E-01 </wgt>
<wgt id='1427'> +4.4590044E-01 </wgt>
<wgt id='1428'> +4.3887937E-01 </wgt>
<wgt id='1429'> +4.4306638E-01 </wgt>
<wgt id='1430'> +4.4499033E-01 </wgt>
<wgt id='1431'> +4.4177460E-01 </wgt>
<wgt id='1432'> +4.4682129E-01 </wgt>
<wgt id='1433'> +4.3760387E-01 </wgt>
<wgt id='1434'> +4.5212960E-01 </wgt>
<wgt id='1435'> +4.4224105E-01 </wgt>
<wgt id='1436'> +4.4739744E-01 </wgt>
<wgt id='1437'> +4.4324004E-01 </wgt>
<wgt id='1438'> +4.4730395E-01 </wgt>
<wgt id='1439'> +4.3797043E-01 </wgt>
<wgt id='1440'> +4.5855368E-01 </wgt>
<wgt id='1441'> +4.4122929E-01 </wgt>
<wgt id='1442'> +4.4706848E-01 </wgt>
<wgt id='1443'> +4.3366783E-01 </wgt>
<wgt id='1444'> +4.3393475E-01 </wgt>
<wgt id='1445'> +4.3337723E-01 </wgt>
<wgt id='1446'> +4.3390560E-01 </wgt>
<wgt id='1447'> +4.3351345E-01 </wgt>
<wgt id='1448'> +4.3599953E-01 </wgt>
<wgt id='1449'> +4.3150473E-01 </wgt>
<wgt id='1450'> +4.3642889E-01 </wgt>
<wgt id='1451'> +4.3064441E-01 </wgt>
<wgt id='1452'> +4.3202333E-01 </wgt>
<wgt id='1453'> +4.3528670E-01 </wgt>
<wgt id='1454'> +4.3284352E-01 </wgt>
<wgt id='1455'> +4.3547395E-01 </wgt>
<wgt id='1456'> +4.3324226E-01 </wgt>
<wgt id='1457'> +4.3444165E-01 </wgt>
<wgt id='1458'> +4.3424166E-01 </wgt>
<wgt id='1459'> +4.3335672E-01 </wgt>
<wgt id='1460'> +4.3491719E-01 </wgt>
<wgt id='1461'> +4.3218675E-01 </wgt>
<wgt id='1462'> +4.3230710E-01 </wgt>
<wgt id='1463'> +4.3484885E-01 </wgt>
<wgt id='1464'> +4.3475053E-01 </wgt>
<wgt id='1465'> +4.3224005E-01 </wgt>
<wgt id='1466'> +4.3464877E-01 </wgt>
<wgt id='1467'> +4.3267858E-01 </wgt>
<wgt id='1468'> +4.4329036E-01 </wgt>
<wgt id='1469'> +4.2440638E-01 </wgt>
<wgt id='1470'> +4.3300227E-01 </wgt>
<wgt id='1471'> +4.3368904E-01 </wgt>
<wgt id='1472'> +4.2778985E-01 </wgt>
<wgt id='1473'> +4.4092027E-01 </wgt>
<wgt id='1474'> +4.2397620E-01 </wgt>
<wgt id='1475'> +4.4507775E-01 </wgt>
<wgt id='1476'> +4.3685960E-01 </wgt>
<wgt id='1477'> +4.3062417E-01 </wgt>
<wgt id='1478'> +4.3505942E-01 </wgt>
<wgt id='1479'> +4.2820216E-01 </wgt>
<wgt id='1480'> +4.3284320E-01 </wgt>
<wgt id='1481'> +4.3364379E-01 </wgt>
<wgt id='1482'> +4.3137557E-01 </wgt>
<wgt id='1483'> +4.3616099E-01 </wgt>
<wgt id='1484'> +4.2671086E-01 </wgt>
<wgt id='1485'> +4.4132188E-01 </wgt>
<wgt id='1486'> +4.3149078E-01 </wgt>
<wgt id='1487'> +4.3651510E-01 </wgt>
<wgt id='1488'> +4.3227131E-01 </wgt>
<wgt id='1489'> +4.3709470E-01 </wgt>
<wgt id='1490'> +4.2713181E-01 </wgt>
<wgt id='1491'> +4.4801911E-01 </wgt>
<wgt id='1492'> +4.2894498E-01 </wgt>
<wgt id='1493'> +4.3760970E-01 </wgt>
<wgt id='1494'> +4.2475915E-01 </wgt>
<wgt id='1495'> +4.1091028E-01 </wgt>
<wgt id='1496'> +4.1488068E-01 </wgt>
<wgt id='1497'> +4.2076902E-01 </wgt>
<wgt id='1498'> +4.3269357E-01 </wgt>
<wgt id='1499'> +4.2606993E-01 </wgt>
<wgt id='1500'> +4.3470966E-01 </wgt>
<wgt id='1501'> +4.3325895E-01 </wgt>
<wgt id='1502'> +4.3135401E-01 </wgt>
<wgt id='1503'> +4.2961495E-01 </wgt>
<wgt id='1504'> +4.2790259E-01 </wgt>
<wgt id='1505'> +4.2455142E-01 </wgt>
<wgt id='1506'> +4.2273649E-01 </wgt>
<wgt id='1507'> +4.2084577E-01 </wgt>
<wgt id='1508'> +4.2606993E-01 </wgt>
<wgt id='1509'> +4.2674783E-01 </wgt>
<wgt id='1510'> +4.2636040E-01 </wgt>
<wgt id='1511'> +4.2589127E-01 </wgt>
<wgt id='1512'> +4.2627047E-01 </wgt>
<wgt id='1513'> +4.4693695E-01 </wgt>
<wgt id='1514'> +4.4698597E-01 </wgt>
<wgt id='1515'> +4.4689329E-01 </wgt>
<wgt id='1516'> +4.4801957E-01 </wgt>
<wgt id='1517'> +4.4585992E-01 </wgt>
<wgt id='1518'> +4.4773113E-01 </wgt>
<wgt id='1519'> +4.4661735E-01 </wgt>
<wgt id='1520'> +4.5114760E-01 </wgt>
<wgt id='1521'> +4.4277006E-01 </wgt>
<wgt id='1522'> +4.4617777E-01 </wgt>
<wgt id='1523'> +4.4768813E-01 </wgt>
<wgt id='1524'> +4.5038139E-01 </wgt>
<wgt id='1525'> +4.4544699E-01 </wgt>
<wgt id='1526'> +4.4684168E-01 </wgt>
<wgt id='1527'> +4.4704056E-01 </wgt>
<wgt id='1528'> +4.4669605E-01 </wgt>
<wgt id='1529'> +4.4720832E-01 </wgt>
<wgt id='1530'> +4.4670000E-01 </wgt>
<wgt id='1531'> +4.4706087E-01 </wgt>
<wgt id='1532'> +4.4803142E-01 </wgt>
<wgt id='1533'> +4.4544514E-01 </wgt>
<wgt id='1534'> +4.4621296E-01 </wgt>
<wgt id='1535'> +4.4745460E-01 </wgt>
<wgt id='1536'> +4.4184449E-01 </wgt>
<wgt id='1537'> +4.5185753E-01 </wgt>
<wgt id='1538'> +4.4534419E-01 </wgt>
<wgt id='1539'> +4.5062790E-01 </wgt>
<wgt id='1540'> +4.4421071E-01 </wgt>
<wgt id='1541'> +4.4867999E-01 </wgt>
<wgt id='1542'> +4.5365091E-01 </wgt>
<wgt id='1543'> +4.3062035E-01 </wgt>
<wgt id='1544'> +4.4163519E-01 </wgt>
<wgt id='1545'> +4.5762698E-01 </wgt>
<wgt id='1546'> +4.4905035E-01 </wgt>
<wgt id='1547'> +4.4216674E-01 </wgt>
<wgt id='1548'> +4.3837890E-01 </wgt>
<wgt id='1549'> +4.5016467E-01 </wgt>
<wgt id='1550'> +4.4648118E-01 </wgt>
<wgt id='1551'> +4.4771874E-01 </wgt>
<wgt id='1552'> +4.4337440E-01 </wgt>
<wgt id='1553'> +4.4954932E-01 </wgt>
<wgt id='1554'> +4.5674863E-01 </wgt>
<wgt id='1555'> +4.3232950E-01 </wgt>
<wgt id='1556'> +4.4784499E-01 </wgt>
<wgt id='1557'> +4.4547358E-01 </wgt>
<wgt id='1558'> +4.5406845E-01 </wgt>
<wgt id='1559'> +4.4226929E-01 </wgt>
<wgt id='1560'> +4.4594739E-01 </wgt>
<wgt id='1561'> +4.4740338E-01 </wgt>
<wgt id='1562'> +4.5433406E-01 </wgt>
<wgt id='1563'> +4.4204663E-01 </wgt>
<wgt id='1564'> +4.4693695E-01 </wgt>
<wgt id='1565'> +4.3805803E-01 </wgt>
<wgt id='1566'> +4.6164266E-01 </wgt>
<wgt id='1567'> +4.5017528E-01 </wgt>
<wgt id='1568'> +4.6181961E-01 </wgt>
<wgt id='1569'> +4.5944589E-01 </wgt>
<wgt id='1570'> +4.5723564E-01 </wgt>
<wgt id='1571'> +4.5505870E-01 </wgt>
<wgt id='1572'> +4.5248603E-01 </wgt>
<wgt id='1573'> +4.4744372E-01 </wgt>
<wgt id='1574'> +4.4485616E-01 </wgt>
<wgt id='1575'> +4.4238560E-01 </wgt>
<wgt id='1576'> +4.5017528E-01 </wgt>
<wgt id='1577'> +4.5045074E-01 </wgt>
<wgt id='1578'> +4.5021376E-01 </wgt>
<wgt id='1579'> +4.5021705E-01 </wgt>
<wgt id='1580'> +4.5033177E-01 </wgt>
<wgt id='1581'> +4.3467632E-01 </wgt>
<wgt id='1582'> +4.3726102E-01 </wgt>
<wgt id='1583'> +4.3285392E-01 </wgt>
<wgt id='1584'> +4.3278723E-01 </wgt>
<wgt id='1585'> +4.3441008E-01 </wgt>
<wgt id='1586'> +4.2390553E-01 </wgt>
<wgt id='1587'> +4.3531272E-01 </wgt>
<wgt id='1588'> +4.3558938E-01 </wgt>
<wgt id='1589'> +4.3388046E-01 </wgt>
<wgt id='1590'> +4.4414766E-01 </wgt>
<wgt id='1591'> +4.3811179E-01 </wgt>
<wgt id='1592'> +4.2181656E-01 </wgt>
<wgt id='1593'> +4.3522217E-01 </wgt>
<wgt id='1594'> +4.3672497E-01 </wgt>
<wgt id='1595'> +4.3628274E-01 </wgt>
<wgt id='1596'> +4.3863401E-01 </wgt>
<wgt id='1597'> +4.3726610E-01 </wgt>
<wgt id='1598'> +4.3520526E-01 </wgt>
<wgt id='1599'> +4.2748819E-01 </wgt>
<wgt id='1600'> +4.3123034E-01 </wgt>
<wgt id='1601'> +4.3032788E-01 </wgt>
<wgt id='1602'> +4.3260921E-01 </wgt>
<wgt id='1603'> +4.3985323E-01 </wgt>
<wgt id='1604'> +4.3050463E-01 </wgt>
<wgt id='1605'> +4.3010096E-01 </wgt>
<wgt id='1606'> +4.3374230E-01 </wgt>
<wgt id='1607'> +4.3328041E-01 </wgt>
<wgt id='1608'> +4.3271327E-01 </wgt>
<wgt id='1609'> +4.3148333E-01 </wgt>
<wgt id='1610'> +4.3670498E-01 </wgt>
<wgt id='1611'> +4.2269361E-01 </wgt>
<wgt id='1612'> +3.9001424E-01 </wgt>
<wgt id='1613'> +3.8986177E-01 </wgt>
<wgt id='1614'> +3.8982443E-01 </wgt>
<wgt id='1615'> +3.8942227E-01 </wgt>
<wgt id='1616'> +3.9050395E-01 </wgt>
<wgt id='1617'> +3.9040813E-01 </wgt>
<wgt id='1618'> +3.9070395E-01 </wgt>
<wgt id='1619'> +3.9010372E-01 </wgt>
<wgt id='1620'> +3.8913310E-01 </wgt>
<wgt id='1621'> +3.9023192E-01 </wgt>
<wgt id='1622'> +3.9008842E-01 </wgt>
<wgt id='1623'> +3.8808978E-01 </wgt>
<wgt id='1624'> +3.8787388E-01 </wgt>
<wgt id='1625'> +3.8769683E-01 </wgt>
<wgt id='1626'> +3.8961730E-01 </wgt>
<wgt id='1627'> +3.8874952E-01 </wgt>
<wgt id='1628'> +3.9081009E-01 </wgt>
<wgt id='1629'> +3.9060192E-01 </wgt>
<wgt id='1630'> +3.8918460E-01 </wgt>
<wgt id='1631'> +3.9043881E-01 </wgt>
<wgt id='1632'> +3.8933468E-01 </wgt>
<wgt id='1633'> +3.9086464E-01 </wgt>
<wgt id='1634'> +3.9078748E-01 </wgt>
<wgt id='1635'> +3.9004784E-01 </wgt>
<wgt id='1636'> +3.8899952E-01 </wgt>
<wgt id='1637'> +3.9108822E-01 </wgt>
<wgt id='1638'> +3.9103165E-01 </wgt>
<wgt id='1639'> +3.9045327E-01 </wgt>
<wgt id='1640'> +3.8957138E-01 </wgt>
<wgt id='1641'> +3.8904396E-01 </wgt>
<wgt id='1642'> +3.8908633E-01 </wgt>
<wgt id='1643'> +3.8968212E-01 </wgt>
<wgt id='1644'> +3.8867738E-01 </wgt>
<wgt id='1645'> +3.8864960E-01 </wgt>
<wgt id='1646'> +3.9070049E-01 </wgt>
<wgt id='1647'> +3.9074574E-01 </wgt>
<wgt id='1648'> +3.9036622E-01 </wgt>
<wgt id='1649'> +3.8972499E-01 </wgt>
<wgt id='1650'> +3.8913983E-01 </wgt>
<wgt id='1651'> +3.8825320E-01 </wgt>
<wgt id='1652'> +3.9021675E-01 </wgt>
<wgt id='1653'> +3.9087065E-01 </wgt>
<wgt id='1654'> +3.9233849E-01 </wgt>
<wgt id='1655'> +3.8694838E-01 </wgt>
<wgt id='1656'> +3.8886791E-01 </wgt>
<wgt id='1657'> +3.9016503E-01 </wgt>
<wgt id='1658'> +3.9250318E-01 </wgt>
<wgt id='1659'> +3.9151942E-01 </wgt>
<wgt id='1660'> +3.8896411E-01 </wgt>
<wgt id='1661'> +3.8910033E-01 </wgt>
<wgt id='1662'> +3.9160523E-01 </wgt>
<wgt id='1663'> +3.8815596E-01 </wgt>
<wgt id='1664'> +3.8898197E-01 </wgt>
<wgt id='1665'> +3.8981593E-01 </wgt>
<wgt id='1666'> +3.9073974E-01 </wgt>
<wgt id='1667'> +3.9121300E-01 </wgt>
<wgt id='1668'> +3.8858147E-01 </wgt>
<wgt id='1669'> +3.8725424E-01 </wgt>
<wgt id='1670'> +3.8937379E-01 </wgt>
<wgt id='1671'> +3.9057888E-01 </wgt>
<wgt id='1672'> +3.9008610E-01 </wgt>
<wgt id='1673'> +3.9009396E-01 </wgt>
<wgt id='1674'> +3.8918378E-01 </wgt>
<wgt id='1675'> +3.9027078E-01 </wgt>
<wgt id='1676'> +3.8912387E-01 </wgt>
<wgt id='1677'> +3.8951550E-01 </wgt>
<wgt id='1678'> +3.9105958E-01 </wgt>
<wgt id='1679'> +3.9062889E-01 </wgt>
<wgt id='1680'> +3.9051099E-01 </wgt>
<wgt id='1681'> +3.9109492E-01 </wgt>
<wgt id='1682'> +3.8875241E-01 </wgt>
<wgt id='1683'> +3.8962016E-01 </wgt>
<wgt id='1684'> +3.8985426E-01 </wgt>
<wgt id='1685'> +3.8786137E-01 </wgt>
<wgt id='1686'> +3.8984808E-01 </wgt>
<wgt id='1687'> +3.8921922E-01 </wgt>
<wgt id='1688'> +3.9131376E-01 </wgt>
<wgt id='1689'> +3.8851729E-01 </wgt>
<wgt id='1690'> +3.9012832E-01 </wgt>
<wgt id='1691'> +3.9090110E-01 </wgt>
<wgt id='1692'> +3.9064934E-01 </wgt>
<wgt id='1693'> +3.9086307E-01 </wgt>
<wgt id='1694'> +3.9122921E-01 </wgt>
<wgt id='1695'> +3.9016173E-01 </wgt>
<wgt id='1696'> +3.8981212E-01 </wgt>
<wgt id='1697'> +3.9061154E-01 </wgt>
<wgt id='1698'> +3.9030235E-01 </wgt>
<wgt id='1699'> +3.8920246E-01 </wgt>
<wgt id='1700'> +3.9070619E-01 </wgt>
<wgt id='1701'> +3.8895563E-01 </wgt>
<wgt id='1702'> +3.9036541E-01 </wgt>
<wgt id='1703'> +3.9050726E-01 </wgt>
<wgt id='1704'> +3.9008569E-01 </wgt>
<wgt id='1705'> +3.9052526E-01 </wgt>
<wgt id='1706'> +3.8992187E-01 </wgt>
<wgt id='1707'> +3.9068133E-01 </wgt>
<wgt id='1708'> +3.8924287E-01 </wgt>
<wgt id='1709'> +3.9071534E-01 </wgt>
<wgt id='1710'> +3.8954611E-01 </wgt>
<wgt id='1711'> +3.9009564E-01 </wgt>
<wgt id='1712'> +3.8979611E-01 </wgt>
<wgt id='1713'> +3.8105629E-01 </wgt>
<wgt id='1714'> +4.0142659E-01 </wgt>
<wgt id='1715'> +3.7719136E-01 </wgt>
<wgt id='1716'> +3.7606121E-01 </wgt>
<wgt id='1717'> +3.7274338E-01 </wgt>
<wgt id='1718'> +3.8686737E-01 </wgt>
<wgt id='1719'> +3.8028875E-01 </wgt>
<wgt id='1720'> +3.9587171E-01 </wgt>
<wgt id='1721'> +3.8838983E-01 </wgt>
<wgt id='1722'> +3.7260986E-01 </wgt>
<wgt id='1723'> +3.7649464E-01 </wgt>
<wgt id='1724'> +3.8151734E-01 </wgt>
<wgt id='1725'> +3.8093149E-01 </wgt>
<wgt id='1726'> +3.7438764E-01 </wgt>
<wgt id='1727'> +3.8323914E-01 </wgt>
<wgt id='1728'> +3.7121391E-01 </wgt>
<wgt id='1729'> +3.8776924E-01 </wgt>
<wgt id='1730'> +3.7226737E-01 </wgt>
<wgt id='1731'> +3.6175090E-01 </wgt>
<wgt id='1732'> +3.6762053E-01 </wgt>
<wgt id='1733'> +3.7884742E-01 </wgt>
<wgt id='1734'> +3.7878673E-01 </wgt>
<wgt id='1735'> +3.6877360E-01 </wgt>
<wgt id='1736'> +3.7016835E-01 </wgt>
<wgt id='1737'> +3.7643029E-01 </wgt>
<wgt id='1738'> +3.5461277E-01 </wgt>
<wgt id='1739'> +3.8143903E-01 </wgt>
<wgt id='1740'> +3.7366119E-01 </wgt>
<wgt id='1741'> +3.7272244E-01 </wgt>
<wgt id='1742'> +3.7389567E-01 </wgt>
<wgt id='1743'> +3.6096387E-01 </wgt>
<wgt id='1744'> +3.8742594E-01 </wgt>
<wgt id='1745'> +3.7866694E-01 </wgt>
<wgt id='1746'> +3.7785294E-01 </wgt>
<wgt id='1747'> +3.8241043E-01 </wgt>
<wgt id='1748'> +3.8820967E-01 </wgt>
<wgt id='1749'> +3.7781375E-01 </wgt>
<wgt id='1750'> +3.7178649E-01 </wgt>
<wgt id='1751'> +3.7696769E-01 </wgt>
<wgt id='1752'> +3.7984494E-01 </wgt>
<wgt id='1753'> +3.7466636E-01 </wgt>
<wgt id='1754'> +3.8384804E-01 </wgt>
<wgt id='1755'> +3.7341141E-01 </wgt>
<wgt id='1756'> +3.7873619E-01 </wgt>
<wgt id='1757'> +3.8123322E-01 </wgt>
<wgt id='1758'> +3.9615718E-01 </wgt>
<wgt id='1759'> +3.7184582E-01 </wgt>
<wgt id='1760'> +3.9085175E-01 </wgt>
<wgt id='1761'> +3.7853815E-01 </wgt>
<wgt id='1762'> +3.8323914E-01 </wgt>
<wgt id='1763'> +3.8503956E-01 </wgt>
<wgt id='1764'> +3.8761653E-01 </wgt>
<wgt id='1765'> +3.8196878E-01 </wgt>
<wgt id='1766'> +3.8555373E-01 </wgt>
<wgt id='1767'> +3.6503453E-01 </wgt>
<wgt id='1768'> +3.7943092E-01 </wgt>
<wgt id='1769'> +3.7079603E-01 </wgt>
<wgt id='1770'> +3.6650604E-01 </wgt>
<wgt id='1771'> +3.7648354E-01 </wgt>
<wgt id='1772'> +3.6754512E-01 </wgt>
<wgt id='1773'> +3.8133951E-01 </wgt>
<wgt id='1774'> +3.6588990E-01 </wgt>
<wgt id='1775'> +3.6119071E-01 </wgt>
<wgt id='1776'> +3.8659281E-01 </wgt>
<wgt id='1777'> +3.7080523E-01 </wgt>
<wgt id='1778'> +3.7167498E-01 </wgt>
<wgt id='1779'> +3.7154868E-01 </wgt>
<wgt id='1780'> +3.8633165E-01 </wgt>
<wgt id='1781'> +3.8492455E-01 </wgt>
<wgt id='1782'> +3.6996186E-01 </wgt>
<wgt id='1783'> +3.7459931E-01 </wgt>
<wgt id='1784'> +3.6209295E-01 </wgt>
<wgt id='1785'> +3.8882295E-01 </wgt>
<wgt id='1786'> +3.7968410E-01 </wgt>
<wgt id='1787'> +3.7905324E-01 </wgt>
<wgt id='1788'> +3.7557524E-01 </wgt>
<wgt id='1789'> +3.8627811E-01 </wgt>
<wgt id='1790'> +3.7192596E-01 </wgt>
<wgt id='1791'> +3.6756157E-01 </wgt>
<wgt id='1792'> +3.7184422E-01 </wgt>
<wgt id='1793'> +3.7975137E-01 </wgt>
<wgt id='1794'> +3.6496609E-01 </wgt>
<wgt id='1795'> +3.6536013E-01 </wgt>
<wgt id='1796'> +3.8451014E-01 </wgt>
<wgt id='1797'> +3.9548843E-01 </wgt>
<wgt id='1798'> +3.7058822E-01 </wgt>
<wgt id='1799'> +3.7202063E-01 </wgt>
<wgt id='1800'> +3.8618430E-01 </wgt>
<wgt id='1801'> +3.6546912E-01 </wgt>
<wgt id='1802'> +3.7513818E-01 </wgt>
<wgt id='1803'> +3.7952242E-01 </wgt>
<wgt id='1804'> +3.8018712E-01 </wgt>
<wgt id='1805'> +3.7877733E-01 </wgt>
<wgt id='1806'> +3.7201009E-01 </wgt>
<wgt id='1807'> +3.8031554E-01 </wgt>
<wgt id='1808'> +3.8091210E-01 </wgt>
<wgt id='1809'> +3.8421033E-01 </wgt>
<wgt id='1810'> +3.8605295E-01 </wgt>
<wgt id='1811'> +3.8262393E-01 </wgt>
<wgt id='1812'> +3.6511715E-01 </wgt>
<wgt id='1813'> +3.8250910E-01 </wgt>
<wgt id='1814'> +3.6450257E-01 </wgt>
<wgt id='1815'> +3.8804605E-01 </wgt>
<wgt id='1816'> +4.3849621E-01 </wgt>
<wgt id='1817'> +4.4455838E-01 </wgt>
<wgt id='1818'> +4.5012773E-01 </wgt>
<wgt id='1819'> +4.1033331E-01 </wgt>
<wgt id='1820'> +4.5220082E-01 </wgt>
<wgt id='1821'> +4.4827387E-01 </wgt>
<wgt id='1822'> +4.5617959E-01 </wgt>
<wgt id='1823'> +4.3378426E-01 </wgt>
<wgt id='1824'> +4.4240966E-01 </wgt>
<wgt id='1825'> +4.2236060E-01 </wgt>
<wgt id='1826'> +4.1162196E-01 </wgt>
<wgt id='1827'> +4.6337826E-01 </wgt>
<wgt id='1828'> +4.3579124E-01 </wgt>
<wgt id='1829'> +4.6272925E-01 </wgt>
<wgt id='1830'> +4.4982434E-01 </wgt>
<wgt id='1831'> +4.5620201E-01 </wgt>
<wgt id='1832'> +4.2770563E-01 </wgt>
<wgt id='1833'> +4.8809361E-01 </wgt>
<wgt id='1834'> +4.4736604E-01 </wgt>
<wgt id='1835'> +4.3418602E-01 </wgt>
<wgt id='1836'> +4.2469648E-01 </wgt>
<wgt id='1837'> +4.3467290E-01 </wgt>
<wgt id='1838'> +3.9809921E-01 </wgt>
<wgt id='1839'> +4.0370975E-01 </wgt>
<wgt id='1840'> +3.9076578E-01 </wgt>
<wgt id='1841'> +4.4006205E-01 </wgt>
<wgt id='1842'> +4.4346631E-01 </wgt>
<wgt id='1843'> +4.7586666E-01 </wgt>
<wgt id='1844'> +4.7863441E-01 </wgt>
<wgt id='1845'> +4.5831811E-01 </wgt>
<wgt id='1846'> +4.2107120E-01 </wgt>
<wgt id='1847'> +4.2762174E-01 </wgt>
<wgt id='1848'> +4.4006377E-01 </wgt>
<wgt id='1849'> +4.3784912E-01 </wgt>
<wgt id='1850'> +4.2567293E-01 </wgt>
<wgt id='1851'> +4.2739911E-01 </wgt>
<wgt id='1852'> +4.2702062E-01 </wgt>
<wgt id='1853'> +4.5851884E-01 </wgt>
<wgt id='1854'> +4.2063713E-01 </wgt>
<wgt id='1855'> +4.4219881E-01 </wgt>
<wgt id='1856'> +4.3151715E-01 </wgt>
<wgt id='1857'> +4.2624951E-01 </wgt>
<wgt id='1858'> +4.4884120E-01 </wgt>
<wgt id='1859'> +4.0540230E-01 </wgt>
<wgt id='1860'> +4.1908176E-01 </wgt>
<wgt id='1861'> +3.9242897E-01 </wgt>
<wgt id='1862'> +3.9535008E-01 </wgt>
<wgt id='1863'> +4.5708915E-01 </wgt>
<wgt id='1864'> +4.5558778E-01 </wgt>
<wgt id='1865'> +4.5696092E-01 </wgt>
<wgt id='1866'> +4.4209626E-01 </wgt>
<wgt id='1867'> +4.3317555E-01 </wgt>
<wgt id='1868'> +4.1546230E-01 </wgt>
<wgt id='1869'> +4.4360128E-01 </wgt>
<wgt id='1870'> +4.6870651E-01 </wgt>
<wgt id='1871'> +4.3404567E-01 </wgt>
<wgt id='1872'> +4.6467290E-01 </wgt>
<wgt id='1873'> +4.3913936E-01 </wgt>
<wgt id='1874'> +4.4902074E-01 </wgt>
<wgt id='1875'> +4.3361633E-01 </wgt>
<wgt id='1876'> +4.2735824E-01 </wgt>
<wgt id='1877'> +4.4765246E-01 </wgt>
<wgt id='1878'> +4.1171738E-01 </wgt>
<wgt id='1879'> +4.6792731E-01 </wgt>
<wgt id='1880'> +4.5714374E-01 </wgt>
<wgt id='1881'> +4.0713585E-01 </wgt>
<wgt id='1882'> +4.3499879E-01 </wgt>
<wgt id='1883'> +4.1463060E-01 </wgt>
<wgt id='1884'> +4.3418761E-01 </wgt>
<wgt id='1885'> +4.5198973E-01 </wgt>
<wgt id='1886'> +4.5908527E-01 </wgt>
<wgt id='1887'> +3.9681625E-01 </wgt>
<wgt id='1888'> +4.4051747E-01 </wgt>
<wgt id='1889'> +4.5233735E-01 </wgt>
<wgt id='1890'> +4.6989615E-01 </wgt>
<wgt id='1891'> +4.4297324E-01 </wgt>
<wgt id='1892'> +4.1681267E-01 </wgt>
<wgt id='1893'> +4.2501749E-01 </wgt>
<wgt id='1894'> +4.6282023E-01 </wgt>
<wgt id='1895'> +4.4453488E-01 </wgt>
<wgt id='1896'> +4.3911382E-01 </wgt>
<wgt id='1897'> +4.1365958E-01 </wgt>
<wgt id='1898'> +4.4195412E-01 </wgt>
<wgt id='1899'> +4.6331617E-01 </wgt>
<wgt id='1900'> +4.3988352E-01 </wgt>
<wgt id='1901'> +4.4303587E-01 </wgt>
<wgt id='1902'> +4.4970001E-01 </wgt>
<wgt id='1903'> +4.2973660E-01 </wgt>
<wgt id='1904'> +4.5521966E-01 </wgt>
<wgt id='1905'> +4.3999308E-01 </wgt>
<wgt id='1906'> +4.3456424E-01 </wgt>
<wgt id='1907'> +4.4792472E-01 </wgt>
<wgt id='1908'> +4.1728718E-01 </wgt>
<wgt id='1909'> +4.5682956E-01 </wgt>
<wgt id='1910'> +4.3807076E-01 </wgt>
<wgt id='1911'> +4.8101822E-01 </wgt>
<wgt id='1912'> +4.2456530E-01 </wgt>
<wgt id='1913'> +4.3202861E-01 </wgt>
<wgt id='1914'> +3.9483133E-01 </wgt>
<wgt id='1915'> +4.5942768E-01 </wgt>
<wgt id='1916'> +4.4179339E-01 </wgt>
<wgt id='1917'> +4.2152796E-01 </wgt>
<wgt id='1918'> +4.1123243E-01 </wgt>
<wgt id='1919'> +4.3849621E-01 </wgt>
<wgt id='1920'> +4.4455838E-01 </wgt>
<wgt id='1921'> +4.5012773E-01 </wgt>
<wgt id='1922'> +4.1033331E-01 </wgt>
<wgt id='1923'> +4.5220082E-01 </wgt>
<wgt id='1924'> +4.4827387E-01 </wgt>
<wgt id='1925'> +4.5617959E-01 </wgt>
<wgt id='1926'> +4.3378426E-01 </wgt>
<wgt id='1927'> +4.4240966E-01 </wgt>
<wgt id='1928'> +4.2236060E-01 </wgt>
<wgt id='1929'> +4.1162196E-01 </wgt>
<wgt id='1930'> +4.6337826E-01 </wgt>
<wgt id='1931'> +4.3579124E-01 </wgt>
<wgt id='1932'> +4.6272925E-01 </wgt>
<wgt id='1933'> +4.4982434E-01 </wgt>
<wgt id='1934'> +4.5620201E-01 </wgt>
<wgt id='1935'> +4.2770563E-01 </wgt>
<wgt id='1936'> +4.8809361E-01 </wgt>
<wgt id='1937'> +4.4736604E-01 </wgt>
<wgt id='1938'> +4.3418602E-01 </wgt>
<wgt id='1939'> +4.2469648E-01 </wgt>
<wgt id='1940'> +4.3467290E-01 </wgt>
<wgt id='1941'> +3.9809921E-01 </wgt>
<wgt id='1942'> +4.0370975E-01 </wgt>
<wgt id='1943'> +3.9076578E-01 </wgt>
<wgt id='1944'> +4.4006205E-01 </wgt>
<wgt id='1945'> +4.4346631E-01 </wgt>
<wgt id='1946'> +4.7586666E-01 </wgt>
<wgt id='1947'> +4.7863441E-01 </wgt>
<wgt id='1948'> +4.5831811E-01 </wgt>
<wgt id='1949'> +4.2107120E-01 </wgt>
<wgt id='1950'> +4.2762174E-01 </wgt>
<wgt id='1951'> +4.4006377E-01 </wgt>
<wgt id='1952'> +4.3784912E-01 </wgt>
<wgt id='1953'> +4.2567293E-01 </wgt>
<wgt id='1954'> +4.2739911E-01 </wgt>
<wgt id='1955'> +4.2702062E-01 </wgt>
<wgt id='1956'> +4.5851884E-01 </wgt>
<wgt id='1957'> +4.2063713E-01 </wgt>
<wgt id='1958'> +4.4219881E-01 </wgt>
<wgt id='1959'> +4.3151715E-01 </wgt>
<wgt id='1960'> +4.2624951E-01 </wgt>
<wgt id='1961'> +4.4884120E-01 </wgt>
<wgt id='1962'> +4.0540230E-01 </wgt>
<wgt id='1963'> +4.1908176E-01 </wgt>
<wgt id='1964'> +3.9242897E-01 </wgt>
<wgt id='1965'> +3.9535008E-01 </wgt>
<wgt id='1966'> +4.5708915E-01 </wgt>
<wgt id='1967'> +4.5558778E-01 </wgt>
<wgt id='1968'> +4.5696092E-01 </wgt>
<wgt id='1969'> +4.4209626E-01 </wgt>
<wgt id='1970'> +4.3317555E-01 </wgt>
<wgt id='1971'> +4.1546230E-01 </wgt>
<wgt id='1972'> +4.4360128E-01 </wgt>
<wgt id='1973'> +4.6870651E-01 </wgt>
<wgt id='1974'> +4.3404567E-01 </wgt>
<wgt id='1975'> +4.6467290E-01 </wgt>
<wgt id='1976'> +4.3913936E-01 </wgt>
<wgt id='1977'> +4.4902074E-01 </wgt>
<wgt id='1978'> +4.3361633E-01 </wgt>
<wgt id='1979'> +4.2735824E-01 </wgt>
<wgt id='1980'> +4.4765246E-01 </wgt>
<wgt id='1981'> +4.1171738E-01 </wgt>
<wgt id='1982'> +4.6792731E-01 </wgt>
<wgt id='1983'> +4.5714374E-01 </wgt>
<wgt id='1984'> +4.0713585E-01 </wgt>
<wgt id='1985'> +4.3499879E-01 </wgt>
<wgt id='1986'> +4.1463060E-01 </wgt>
<wgt id='1987'> +4.3418761E-01 </wgt>
<wgt id='1988'> +4.5198973E-01 </wgt>
<wgt id='1989'> +4.5908527E-01 </wgt>
<wgt id='1990'> +3.9681625E-01 </wgt>
<wgt id='1991'> +4.4051747E-01 </wgt>
<wgt id='1992'> +4.5233735E-01 </wgt>
<wgt id='1993'> +4.6989615E-01 </wgt>
<wgt id='1994'> +4.4297324E-01 </wgt>
<wgt id='1995'> +4.1681267E-01 </wgt>
<wgt id='1996'> +4.2501749E-01 </wgt>
<wgt id='1997'> +4.6282023E-01 </wgt>
<wgt id='1998'> +4.4453488E-01 </wgt>
<wgt id='1999'> +4.3911382E-01 </wgt>
<wgt id='2000'> +4.1365958E-01 </wgt>
<wgt id='2001'> +4.4195412E-01 </wgt>
<wgt id='2002'> +4.6331617E-01 </wgt>
<wgt id='2003'> +4.3988352E-01 </wgt>
<wgt id='2004'> +4.4303587E-01 </wgt>
<wgt id='2005'> +4.4970001E-01 </wgt>
<wgt id='2006'> +4.2973660E-01 </wgt>
<wgt id='2007'> +4.5521966E-01 </wgt>
<wgt id='2008'> +4.3999308E-01 </wgt>
<wgt id='2009'> +4.3456424E-01 </wgt>
<wgt id='2010'> +4.4792472E-01 </wgt>
<wgt id='2011'> +4.1728718E-01 </wgt>
<wgt id='2012'> +4.5682956E-01 </wgt>
<wgt id='2013'> +4.3807076E-01 </wgt>
<wgt id='2014'> +4.8101822E-01 </wgt>
<wgt id='2015'> +4.2456530E-01 </wgt>
<wgt id='2016'> +4.3202861E-01 </wgt>
<wgt id='2017'> +3.9483133E-01 </wgt>
<wgt id='2018'> +4.5942768E-01 </wgt>
<wgt id='2019'> +4.4179339E-01 </wgt>
<wgt id='2020'> +4.3210767E-01 </wgt>
<wgt id='2021'> +4.4496206E-01 </wgt>
<wgt id='2022'> +4.3077904E-01 </wgt>
</rwgt>
</event>
<event>
13      1 +3.9556008E-01 9.88500800e+02 7.81860800e-03 8.19982500e-02
        2 -1    0    0  503    0 +0.0000000000e+00 +0.0000000000e+00 +1.1305244353e+03 1.1305244353e+03 2.5500000000e-03 0.0000e+00 -1.0000e+00
       21 -1    0    0  501  503 +0.0000000000e+00 +0.0000000000e+00 -2.8714367745e+02 2.8714367745e+02 0.0000000000e+00 0.0000e+00 1.0000e+00
  8000001  2    1    2  502    0 -1.5308277850e+01 -2.2439480536e+02 +6.2199574463e+02 8.9301021258e+02 6.0000096785e+02 0.0000e+00 0.0000e+00
        1  1    1    2  501    0 +6.9109886999e+01 -2.1664669299e+01 +2.5991062769e+02 2.6981302561e+02 5.0400000000e-03 0.0000e+00 -1.0000e+00
       -5  1    1    2    0  502 -5.3801609150e+01 +2.4605947466e+02 -3.8525614476e+01 2.5484487455e+02 4.6700000000e+00 0.0000e+00 1.0000e+00
        6  2    3    3  502    0 +1.3071722394e+02 +1.7003192663e+01 +5.4395472343e+02 5.8589296169e+02 1.7322736569e+02 0.0000e+00 0.0000e+00
        5  1    6    6  502    0 +1.0651424008e+02 +2.1118317175e+01 +4.3313167189e+02 4.4656032152e+02 4.6700000000e+00 0.0000e+00 -1.0000e+00
       24  2    6    6    0    0 +2.4202983860e+01 -4.1151245116e+00 +1.1082305154e+02 1.3933264017e+02 8.0802952839e+01 0.0000e+00 0.0000e+00
        2  1    8    8  504    0 -2.8516645119e+01 +5.9959285548e+00 +5.2652186199e+01 6.0178093407e+01 2.5500000000e-03 0.0000e+00 -1.0000e+00
       -1  1    8    8    0  504 +5.2719628979e+01 -1.0111053066e+01 +5.8170865340e+01 7.9154546765e+01 5.0400000000e-03 0.0000e+00 1.0000e+00
       23  2    3    3    0    0 -1.4602550179e+02 -2.4139799802e+02 +7.8041021205e+01 3.0711725089e+02 9.2920203315e+01 0.0000e+00 0.0000e+00
        3  1   11   11  505    0 -1.5433686971e+02 -2.1845347809e+02 +8.6776244427e+01 2.8119729416e+02 1.0100000000e-01 0.0000e+00 -1.0000e+00
       -3  1   11   11    0  505 +8.3113679221e+00 -2.2944519928e+01 -8.7352232223e+00 2.5919956736e+01 1.0100000000e-01 0.0000e+00 1.0000e+00
<mgrwt>
<rscale>  1 0.98850084e+03</rscale>
<asrwt>0</asrwt>
<pdfrwt beam="1">  1       21 0.44175951e-01 0.98850084e+03</pdfrwt>
<pdfrwt beam="2">  1        2 0.17392683e+00 0.98850084e+03</pdfrwt>
<totfact> 0.14024987e+03</totfact>
</mgrwt>
<rwgt>
<wgt id='1001'> +3.9556008E-01 </wgt>
<wgt id='1002'> +4.1231462E-01 </wgt>
<wgt id='1003'> +4.1230456E-01 </wgt>
<wgt id='1004'> +4.7802808E-01 </wgt>
<wgt id='1005'> +3.8437662E-01 </wgt>
<wgt id='1006'> +3.6678351E-01 </wgt>
<wgt id='1007'> +3.8164077E-01 </wgt>
<wgt id='1008'> +3.8163187E-01 </wgt>
<wgt id='1009'> +4.3946895E-01 </wgt>
<wgt id='1010'> +3.5684128E-01 </wgt>
<wgt id='1011'> +4.2936017E-01 </wgt>
<wgt id='1012'> +4.4849177E-01 </wgt>
<wgt id='1013'> +4.4848027E-01 </wgt>
<wgt id='1014'> +5.2421555E-01 </wgt>
<wgt id='1015'> +4.1663296E-01 </wgt>
<wgt id='1016'> +3.7231319E-01 </wgt>
<wgt id='1017'> +3.8775319E-01 </wgt>
<wgt id='1018'> +3.8774389E-01 </wgt>
<wgt id='1019'> +4.4848027E-01 </wgt>
<wgt id='1020'> +3.6198607E-01 </wgt>
<wgt id='1021'> +3.4522780E-01 </wgt>
<wgt id='1022'> +3.5890658E-01 </wgt>
<wgt id='1023'> +3.5889835E-01 </wgt>
<wgt id='1024'> +4.1230456E-01 </wgt>
<wgt id='1025'> +3.3605470E-01 </wgt>
<wgt id='1026'> +4.0412686E-01 </wgt>
<wgt id='1027'> +4.2177529E-01 </wgt>
<wgt id='1028'> +4.2176464E-01 </wgt>
<wgt id='1029'> +4.9181281E-01 </wgt>
<wgt id='1030'> +3.9236343E-01 </wgt>
<wgt id='1031'> +4.2129314E-01 </wgt>
<wgt id='1032'> +4.3947987E-01 </wgt>
<wgt id='1033'> +4.3946895E-01 </wgt>
<wgt id='1034'> +5.1075747E-01 </wgt>
<wgt id='1035'> +4.0912537E-01 </wgt>
<wgt id='1036'> +3.9064452E-01 </wgt>
<wgt id='1037'> +4.0678509E-01 </wgt>
<wgt id='1038'> +4.0677542E-01 </wgt>
<wgt id='1039'> +4.6955829E-01 </wgt>
<wgt id='1040'> +3.7981712E-01 </wgt>
<wgt id='1041'> +4.5729208E-01 </wgt>
<wgt id='1042'> +4.7804056E-01 </wgt>
<wgt id='1043'> +4.7802808E-01 </wgt>
<wgt id='1044'> +5.6010728E-01 </wgt>
<wgt id='1045'> +4.4345860E-01 </wgt>
<wgt id='1046'> +3.9556008E-01 </wgt>
<wgt id='1047'> +3.9556008E-01 </wgt>
<wgt id='1048'> +3.9556008E-01 </wgt>
<wgt id='1049'> +3.9572420E-01 </wgt>
<wgt id='1050'> +3.9531038E-01 </wgt>
<wgt id='1051'> +3.9637662E-01 </wgt>
<wgt id='1052'> +3.9488164E-01 </wgt>
<wgt id='1053'> +3.9706381E-01 </wgt>
<wgt id='1054'> +3.9503837E-01 </wgt>
<wgt id='1055'> +3.9527891E-01 </wgt>
<wgt id='1056'> +3.9542815E-01 </wgt>
<wgt id='1057'> +3.9575035E-01 </wgt>
<wgt id='1058'> +3.9539913E-01 </wgt>
<wgt id='1059'> +3.9558415E-01 </wgt>
<wgt id='1060'> +3.9461250E-01 </wgt>
<wgt id='1061'> +3.9572518E-01 </wgt>
<wgt id='1062'> +3.9637565E-01 </wgt>
<wgt id='1063'> +3.9562924E-01 </wgt>
<wgt id='1064'> +3.9607221E-01 </wgt>
<wgt id='1065'> +3.9624743E-01 </wgt>
<wgt id='1066'> +3.9398479E-01 </wgt>
<wgt id='1067'> +3.9562304E-01 </wgt>
<wgt id='1068'> +3.9432840E-01 </wgt>
<wgt id='1069'> +3.9455337E-01 </wgt>
<wgt id='1070'> +3.9585512E-01 </wgt>
<wgt id='1071'> +3.9510224E-01 </wgt>
<wgt id='1072'> +3.9612611E-01 </wgt>
<wgt id='1073'> +3.9535622E-01 </wgt>
<wgt id='1074'> +3.9575833E-01 </wgt>
<wgt id='1075'> +3.9397378E-01 </wgt>
<wgt id='1076'> +3.9630661E-01 </wgt>
<wgt id='1077'> +3.9686167E-01 </wgt>
<wgt id='1078'> +3.9548555E-01 </wgt>
<wgt id='1079'> +3.9765885E-01 </wgt>
<wgt id='1080'> +3.9602258E-01 </wgt>
<wgt id='1081'> +3.9603166E-01 </wgt>
<wgt id='1082'> +3.9621788E-01 </wgt>
<wgt id='1083'> +3.9532944E-01 </wgt>
<wgt id='1084'> +3.9490450E-01 </wgt>
<wgt id='1085'> +3.9675441E-01 </wgt>
<wgt id='1086'> +3.9474091E-01 </wgt>
<wgt id='1087'> +3.9549846E-01 </wgt>
<wgt id='1088'> +3.9614355E-01 </wgt>
<wgt id='1089'> +3.9610835E-01 </wgt>
<wgt id='1090'> +3.9570270E-01 </wgt>
<wgt id='1091'> +3.9537118E-01 </wgt>
<wgt id='1092'> +3.9469905E-01 </wgt>
<wgt id='1093'> +3.9541779E-01 </wgt>
<wgt id='1094'> +3.9533212E-01 </wgt>
<wgt id='1095'> +3.9490889E-01 </wgt>
<wgt id='1096'> +3.9459565E-01 </wgt>
<wgt id='1097'> +3.9544235E-01 </wgt>
<wgt id='1098'> +3.9523404E-01 </wgt>
<wgt id='1099'> +3.9540671E-01 </wgt>
<wgt id='1100'> +3.9579377E-01 </wgt>
<wgt id='1101'> +3.9549425E-01 </wgt>
<wgt id='1102'> +3.9589601E-01 </wgt>
<wgt id='1103'> +3.9577450E-01 </wgt>
<wgt id='1104'> +3.9584384E-01 </wgt>
<wgt id='1105'> +3.9590157E-01 </wgt>
<wgt id='1106'> +3.9568819E-01 </wgt>
<wgt id='1107'> +3.9577169E-01 </wgt>
<wgt id='1108'> +3.9557034E-01 </wgt>
<wgt id='1109'> +3.9579940E-01 </wgt>
<wgt id='1110'> +3.9550167E-01 </wgt>
<wgt id='1111'> +3.9542270E-01 </wgt>
<wgt id='1112'> +3.9562922E-01 </wgt>
<wgt id='1113'> +3.9574400E-01 </wgt>
<wgt id='1114'> +3.9487182E-01 </wgt>
<wgt id='1115'> +3.9568892E-01 </wgt>
<wgt id='1116'> +3.9545835E-01 </wgt>
<wgt id='1117'> +3.9563556E-01 </wgt>
<wgt id='1118'> +3.9531011E-01 </wgt>
<wgt id='1119'> +3.9550398E-01 </wgt>
<wgt id='1120'> +3.9550825E-01 </wgt>
<wgt id='1121'> +3.9590667E-01 </wgt>
<wgt id='1122'> +3.9538920E-01 </wgt>
<wgt id='1123'> +3.9563103E-01 </wgt>
<wgt id='1124'> +3.9565795E-01 </wgt>
<wgt id='1125'> +3.9558386E-01 </wgt>
<wgt id='1126'> +3.9559315E-01 </wgt>
<wgt id='1127'> +3.9589941E-01 </wgt>
<wgt id='1128'> +3.9556251E-01 </wgt>
<wgt id='1129'> +3.9561716E-01 </wgt>
<wgt id='1130'> +3.9573415E-01 </wgt>
<wgt id='1131'> +3.9571095E-01 </wgt>
<wgt id='1132'> +3.9568723E-01 </wgt>
<wgt id='1133'> +3.9572055E-01 </wgt>
<wgt id='1134'> +3.9528655E-01 </wgt>
<wgt id='1135'> +3.9567028E-01 </wgt>
<wgt id='1136'> +3.9549143E-01 </wgt>
<wgt id='1137'> +3.9555636E-01 </wgt>
<wgt id='1138'> +3.9581533E-01 </wgt>
<wgt id='1139'> +3.9551450E-01 </wgt>
<wgt id='1140'> +3.9581069E-01 </wgt>
<wgt id='1141'> +3.9552489E-01 </wgt>
<wgt id='1142'> +3.9566055E-01 </wgt>
<wgt id='1143'> +3.9575368E-01 </wgt>
<wgt id='1144'> +3.9549336E-01 </wgt>
<wgt id='1145'> +3.9555674E-01 </wgt>
<wgt id='1146'> +3.9551527E-01 </wgt>
<wgt id='1147'> +3.9569626E-01 </wgt>
<wgt id='1148'> +3.9556008E-01 </wgt>
<wgt id='1149'> +3.7297885E-01 </wgt>
<wgt id='1150'> +3.7715896E-01 </wgt>
<wgt id='1151'> +3.7417295E-01 </wgt>
<wgt id='1152'> +3.7395929E-01 </wgt>
<wgt id='1153'> +3.6989962E-01 </wgt>
<wgt id='1154'> +3.7298143E-01 </wgt>
<wgt id='1155'> +3.7958749E-01 </wgt>
<wgt id='1156'> +3.7889113E-01 </wgt>
<wgt id='1157'> +3.7679379E-01 </wgt>
<wgt id='1158'> +3.7210974E-01 </wgt>
<wgt id='1159'> +3.5483772E-01 </wgt>
<wgt id='1160'> +3.7349021E-01 </wgt>
<wgt id='1161'> +3.7689490E-01 </wgt>
<wgt id='1162'> +3.6724577E-01 </wgt>
<wgt id='1163'> +3.8137331E-01 </wgt>
<wgt id='1164'> +3.7186561E-01 </wgt>
<wgt id='1165'> +3.7042584E-01 </wgt>
<wgt id='1166'> +3.7209053E-01 </wgt>
<wgt id='1167'> +3.7644566E-01 </wgt>
<wgt id='1168'> +3.7055551E-01 </wgt>
<wgt id='1169'> +3.6600912E-01 </wgt>
<wgt id='1170'> +3.7743299E-01 </wgt>
<wgt id='1171'> +3.7291750E-01 </wgt>
<wgt id='1172'> +3.7420881E-01 </wgt>
<wgt id='1173'> +3.7019015E-01 </wgt>
<wgt id='1174'> +3.7831763E-01 </wgt>
<wgt id='1175'> +3.8025540E-01 </wgt>
<wgt id='1176'> +3.5506855E-01 </wgt>
<wgt id='1177'> +3.8036817E-01 </wgt>
<wgt id='1178'> +3.7197240E-01 </wgt>
<wgt id='1179'> +3.7024507E-01 </wgt>
<wgt id='1180'> +3.7396360E-01 </wgt>
<wgt id='1181'> +3.7598630E-01 </wgt>
<wgt id='1182'> +3.7627578E-01 </wgt>
<wgt id='1183'> +3.7085112E-01 </wgt>
<wgt id='1184'> +3.7099548E-01 </wgt>
<wgt id='1185'> +3.8022256E-01 </wgt>
<wgt id='1186'> +3.7230757E-01 </wgt>
<wgt id='1187'> +3.7216073E-01 </wgt>
<wgt id='1188'> +3.7135492E-01 </wgt>
<wgt id='1189'> +3.7611346E-01 </wgt>
<wgt id='1190'> +3.7354541E-01 </wgt>
<wgt id='1191'> +3.7530954E-01 </wgt>
<wgt id='1192'> +3.6777732E-01 </wgt>
<wgt id='1193'> +3.7300598E-01 </wgt>
<wgt id='1194'> +3.7761056E-01 </wgt>
<wgt id='1195'> +3.7235200E-01 </wgt>
<wgt id='1196'> +3.7383315E-01 </wgt>
<wgt id='1197'> +3.7520968E-01 </wgt>
<wgt id='1198'> +3.7392949E-01 </wgt>
<wgt id='1199'> +3.6920679E-01 </wgt>
<wgt id='1200'> +3.7664759E-01 </wgt>
<wgt id='1201'> +3.7654909E-01 </wgt>
<wgt id='1202'> +3.7352797E-01 </wgt>
<wgt id='1203'> +3.7761379E-01 </wgt>
<wgt id='1204'> +3.7947665E-01 </wgt>
<wgt id='1205'> +3.6969933E-01 </wgt>
<wgt id='1206'> +3.7327459E-01 </wgt>
<wgt id='1207'> +3.7794071E-01 </wgt>
<wgt id='1208'> +3.7577375E-01 </wgt>
<wgt id='1209'> +3.8086499E-01 </wgt>
<wgt id='1210'> +3.6494106E-01 </wgt>
<wgt id='1211'> +3.7235972E-01 </wgt>
<wgt id='1212'> +3.6824901E-01 </wgt>
<wgt id='1213'> +3.7934763E-01 </wgt>
<wgt id='1214'> +3.7456426E-01 </wgt>
<wgt id='1215'> +3.7929264E-01 </wgt>
<wgt id='1216'> +3.7403539E-01 </wgt>
<wgt id='1217'> +3.6780461E-01 </wgt>
<wgt id='1218'> +3.7371046E-01 </wgt>
<wgt id='1219'> +3.6966036E-01 </wgt>
<wgt id='1220'> +3.7391569E-01 </wgt>
<wgt id='1221'> +3.5872388E-01 </wgt>
<wgt id='1222'> +3.7279312E-01 </wgt>
<wgt id='1223'> +3.6673754E-01 </wgt>
<wgt id='1224'> +3.6964640E-01 </wgt>
<wgt id='1225'> +3.7680574E-01 </wgt>
<wgt id='1226'> +3.6462212E-01 </wgt>
<wgt id='1227'> +3.8062045E-01 </wgt>
<wgt id='1228'> +3.7241987E-01 </wgt>
<wgt id='1229'> +3.6875516E-01 </wgt>
<wgt id='1230'> +3.7292454E-01 </wgt>
<wgt id='1231'> +3.7042584E-01 </wgt>
<wgt id='1232'> +3.6458389E-01 </wgt>
<wgt id='1233'> +3.7195417E-01 </wgt>
<wgt id='1234'> +3.7667938E-01 </wgt>
<wgt id='1235'> +3.6906522E-01 </wgt>
<wgt id='1236'> +3.7693644E-01 </wgt>
<wgt id='1237'> +3.6703130E-01 </wgt>
<wgt id='1238'> +3.6076115E-01 </wgt>
<wgt id='1239'> +3.8015277E-01 </wgt>
<wgt id='1240'> +3.7949240E-01 </wgt>
<wgt id='1241'> +3.7368274E-01 </wgt>
<wgt id='1242'> +3.7077325E-01 </wgt>
<wgt id='1243'> +3.6968847E-01 </wgt>
<wgt id='1244'> +3.7261257E-01 </wgt>
<wgt id='1245'> +3.7746020E-01 </wgt>
<wgt id='1246'> +3.6971264E-01 </wgt>
<wgt id='1247'> +3.7325594E-01 </wgt>
<wgt id='1248'> +3.7453221E-01 </wgt>
<wgt id='1249'> +3.7495033E-01 </wgt>
<wgt id='1250'> +3.8682006E-01 </wgt>
<wgt id='1251'> +3.8148472E-01 </wgt>
<wgt id='1252'> +3.9403706E-01 </wgt>
<wgt id='1253'> +3.9113497E-01 </wgt>
<wgt id='1254'> +3.6438344E-01 </wgt>
<wgt id='1255'> +3.7633271E-01 </wgt>
<wgt id='1256'> +3.7869819E-01 </wgt>
<wgt id='1257'> +3.7497342E-01 </wgt>
<wgt id='1258'> +3.7567877E-01 </wgt>
<wgt id='1259'> +3.7666659E-01 </wgt>
<wgt id='1260'> +3.7702877E-01 </wgt>
<wgt id='1261'> +3.7540078E-01 </wgt>
<wgt id='1262'> +3.7685575E-01 </wgt>
<wgt id='1263'> +3.7600242E-01 </wgt>
<wgt id='1264'> +3.7633113E-01 </wgt>
<wgt id='1265'> +3.7634112E-01 </wgt>
<wgt id='1266'> +3.7640589E-01 </wgt>
<wgt id='1267'> +3.7626578E-01 </wgt>
<wgt id='1268'> +3.8014600E-01 </wgt>
<wgt id='1269'> +3.7253706E-01 </wgt>
<wgt id='1270'> +3.7509687E-01 </wgt>
<wgt id='1271'> +3.7737579E-01 </wgt>
<wgt id='1272'> +3.7629404E-01 </wgt>
<wgt id='1273'> +3.7634947E-01 </wgt>
<wgt id='1274'> +3.7621692E-01 </wgt>
<wgt id='1275'> +3.7650228E-01 </wgt>
<wgt id='1276'> +3.7644650E-01 </wgt>
<wgt id='1277'> +3.7626540E-01 </wgt>
<wgt id='1278'> +3.7427164E-01 </wgt>
<wgt id='1279'> +3.7800407E-01 </wgt>
<wgt id='1280'> +3.7592874E-01 </wgt>
<wgt id='1281'> +3.7731899E-01 </wgt>
<wgt id='1282'> +3.7769527E-01 </wgt>
<wgt id='1283'> +3.7458451E-01 </wgt>
<wgt id='1284'> +3.7558021E-01 </wgt>
<wgt id='1285'> +3.7689217E-01 </wgt>
<wgt id='1286'> +3.7729735E-01 </wgt>
<wgt id='1287'> +3.7628110E-01 </wgt>
<wgt id='1288'> +3.7627805E-01 </wgt>
<wgt id='1289'> +3.7627797E-01 </wgt>
<wgt id='1290'> +3.7693244E-01 </wgt>
<wgt id='1291'> +3.7613001E-01 </wgt>
<wgt id='1292'> +3.7813453E-01 </wgt>
<wgt id='1293'> +3.7395184E-01 </wgt>
<wgt id='1294'> +3.7479098E-01 </wgt>
<wgt id='1295'> +3.7628029E-01 </wgt>
<wgt id='1296'> +3.9002281E-01 </wgt>
<wgt id='1297'> +3.9098620E-01 </wgt>
<wgt id='1298'> +3.8923603E-01 </wgt>
<wgt id='1299'> +3.8897043E-01 </wgt>
<wgt id='1300'> +3.9119089E-01 </wgt>
<wgt id='1301'> +3.8908795E-01 </wgt>
<wgt id='1302'> +3.9141208E-01 </wgt>
<wgt id='1303'> +3.8950556E-01 </wgt>
<wgt id='1304'> +3.9036802E-01 </wgt>
<wgt id='1305'> +3.9041920E-01 </wgt>
<wgt id='1306'> +3.8945555E-01 </wgt>
<wgt id='1307'> +3.9213158E-01 </wgt>
<wgt id='1308'> +3.8870968E-01 </wgt>
<wgt id='1309'> +3.9020067E-01 </wgt>
<wgt id='1310'> +3.8979981E-01 </wgt>
<wgt id='1311'> +3.9362114E-01 </wgt>
<wgt id='1312'> +3.8872548E-01 </wgt>
<wgt id='1313'> +3.8931365E-01 </wgt>
<wgt id='1314'> +3.9081156E-01 </wgt>
<wgt id='1315'> +3.9014511E-01 </wgt>
<wgt id='1316'> +3.8989880E-01 </wgt>
<wgt id='1317'> +3.8910159E-01 </wgt>
<wgt id='1318'> +3.9194857E-01 </wgt>
<wgt id='1319'> +3.9053773E-01 </wgt>
<wgt id='1320'> +3.8981736E-01 </wgt>
<wgt id='1321'> +3.8829045E-01 </wgt>
<wgt id='1322'> +3.9088866E-01 </wgt>
<wgt id='1323'> +3.8948784E-01 </wgt>
<wgt id='1324'> +3.9041382E-01 </wgt>
<wgt id='1325'> +3.9041882E-01 </wgt>
<wgt id='1326'> +3.8942842E-01 </wgt>
<wgt id='1327'> +3.9019650E-01 </wgt>
<wgt id='1328'> +3.8997282E-01 </wgt>
<wgt id='1329'> +3.9018065E-01 </wgt>
<wgt id='1330'> +3.8992160E-01 </wgt>
<wgt id='1331'> +3.9019753E-01 </wgt>
<wgt id='1332'> +3.9023489E-01 </wgt>
<wgt id='1333'> +3.9228714E-01 </wgt>
<wgt id='1334'> +3.8813501E-01 </wgt>
<wgt id='1335'> +3.9127742E-01 </wgt>
<wgt id='1336'> +3.8969731E-01 </wgt>
<wgt id='1337'> +3.9002281E-01 </wgt>
<wgt id='1338'> +3.9059285E-01 </wgt>
<wgt id='1339'> +3.9039342E-01 </wgt>
<wgt id='1340'> +3.9019398E-01 </wgt>
<wgt id='1341'> +3.8985354E-01 </wgt>
<wgt id='1342'> +3.8970583E-01 </wgt>
<wgt id='1343'> +3.8956634E-01 </wgt>
<wgt id='1344'> +3.9339944E-01 </wgt>
<wgt id='1345'> +3.9484056E-01 </wgt>
<wgt id='1346'> +3.9194502E-01 </wgt>
<wgt id='1347'> +3.9556289E-01 </wgt>
<wgt id='1348'> +3.9179159E-01 </wgt>
<wgt id='1349'> +3.9259567E-01 </wgt>
<wgt id='1350'> +3.9407750E-01 </wgt>
<wgt id='1351'> +3.9340765E-01 </wgt>
<wgt id='1352'> +3.9339073E-01 </wgt>
<wgt id='1353'> +3.9441875E-01 </wgt>
<wgt id='1354'> +3.9266327E-01 </wgt>
<wgt id='1355'> +3.9282760E-01 </wgt>
<wgt id='1356'> +3.9383758E-01 </wgt>
<wgt id='1357'> +3.9412505E-01 </wgt>
<wgt id='1358'> +3.9293876E-01 </wgt>
<wgt id='1359'> +3.9181669E-01 </wgt>
<wgt id='1360'> +3.9734385E-01 </wgt>
<wgt id='1361'> +3.9405122E-01 </wgt>
<wgt id='1362'> +3.9320004E-01 </wgt>
<wgt id='1363'> +3.9351412E-01 </wgt>
<wgt id='1364'> +3.9327770E-01 </wgt>
<wgt id='1365'> +3.9373589E-01 </wgt>
<wgt id='1366'> +3.9330534E-01 </wgt>
<wgt id='1367'> +3.9107636E-01 </wgt>
<wgt id='1368'> +3.9452626E-01 </wgt>
<wgt id='1369'> +3.9315120E-01 </wgt>
<wgt id='1370'> +3.9361483E-01 </wgt>
<wgt id='1371'> +3.9360663E-01 </wgt>
<wgt id='1372'> +3.9305697E-01 </wgt>
<wgt id='1373'> +3.9479513E-01 </wgt>
<wgt id='1374'> +3.9316818E-01 </wgt>
<wgt id='1375'> +3.9396349E-01 </wgt>
<wgt id='1376'> +3.9328385E-01 </wgt>
<wgt id='1377'> +3.9340114E-01 </wgt>
<wgt id='1378'> +3.9344290E-01 </wgt>
<wgt id='1379'> +3.9416066E-01 </wgt>
<wgt id='1380'> +3.9323667E-01 </wgt>
<wgt id='1381'> +3.9167856E-01 </wgt>
<wgt id='1382'> +3.9422443E-01 </wgt>
<wgt id='1383'> +3.9304957E-01 </wgt>
<wgt id='1384'> +3.9522300E-01 </wgt>
<wgt id='1385'> +3.9339944E-01 </wgt>
<wgt id='1386'> +3.9387838E-01 </wgt>
<wgt id='1387'> +3.9370026E-01 </wgt>
<wgt id='1388'> +3.9351622E-01 </wgt>
<wgt id='1389'> +3.9320495E-01 </wgt>
<wgt id='1390'> +3.9306805E-01 </wgt>
<wgt id='1391'> +3.9294448E-01 </wgt>
<wgt id='1392'> +4.1003082E-01 </wgt>
<wgt id='1393'> +4.1005493E-01 </wgt>
<wgt id='1394'> +4.0999698E-01 </wgt>
<wgt id='1395'> +4.1035423E-01 </wgt>
<wgt id='1396'> +4.0979426E-01 </wgt>
<wgt id='1397'> +4.1146509E-01 </wgt>
<wgt id='1398'> +4.0863247E-01 </wgt>
<wgt id='1399'> +4.1120329E-01 </wgt>
<wgt id='1400'> +4.0858920E-01 </wgt>
<wgt id='1401'> +4.0857919E-01 </wgt>
<wgt id='1402'> +4.1181913E-01 </wgt>
<wgt id='1403'> +4.0974796E-01 </wgt>
<wgt id='1404'> +4.1060778E-01 </wgt>
<wgt id='1405'> +4.0946339E-01 </wgt>
<wgt id='1406'> +4.1082103E-01 </wgt>
<wgt id='1407'> +4.0987166E-01 </wgt>
<wgt id='1408'> +4.1013924E-01 </wgt>
<wgt id='1409'> +4.1205323E-01 </wgt>
<wgt id='1410'> +4.0770904E-01 </wgt>
<wgt id='1411'> +4.0952859E-01 </wgt>
<wgt id='1412'> +4.1041667E-01 </wgt>
<wgt id='1413'> +4.1115911E-01 </wgt>
<wgt id='1414'> +4.0884495E-01 </wgt>
<wgt id='1415'> +4.1210577E-01 </wgt>
<wgt id='1416'> +4.0786717E-01 </wgt>
<wgt id='1417'> +4.0823671E-01 </wgt>
<wgt id='1418'> +4.1222334E-01 </wgt>
<wgt id='1419'> +4.1013246E-01 </wgt>
<wgt id='1420'> +4.0975345E-01 </wgt>
<wgt id='1421'> +4.1055263E-01 </wgt>
<wgt id='1422'> +4.0950800E-01 </wgt>
<wgt id='1423'> +4.0956490E-01 </wgt>
<wgt id='1424'> +4.1017926E-01 </wgt>
<wgt id='1425'> +4.1024170E-01 </wgt>
<wgt id='1426'> +4.0976826E-01 </wgt>
<wgt id='1427'> +4.0962793E-01 </wgt>
<wgt id='1428'> +4.0856019E-01 </wgt>
<wgt id='1429'> +4.0938440E-01 </wgt>
<wgt id='1430'> +4.1053839E-01 </wgt>
<wgt id='1431'> +4.0955762E-01 </wgt>
<wgt id='1432'> +4.1035462E-01 </wgt>
<wgt id='1433'> +4.0804031E-01 </wgt>
<wgt id='1434'> +4.1206209E-01 </wgt>
<wgt id='1435'> +4.0935284E-01 </wgt>
<wgt id='1436'> +4.1049061E-01 </wgt>
<wgt id='1437'> +4.0948659E-01 </wgt>
<wgt id='1438'> +4.1132291E-01 </wgt>
<wgt id='1439'> +4.1224919E-01 </wgt>
<wgt id='1440'> +4.0694206E-01 </wgt>
<wgt id='1441'> +4.1086367E-01 </wgt>
<wgt id='1442'> +4.1050296E-01 </wgt>
<wgt id='1443'> +4.0836522E-01 </wgt>
<wgt id='1444'> +4.0839659E-01 </wgt>
<wgt id='1445'> +4.0831813E-01 </wgt>
<wgt id='1446'> +4.0870288E-01 </wgt>
<wgt id='1447'> +4.0813390E-01 </wgt>
<wgt id='1448'> +4.0989301E-01 </wgt>
<wgt id='1449'> +4.0693800E-01 </wgt>
<wgt id='1450'> +4.0946813E-01 </wgt>
<wgt id='1451'> +4.0714138E-01 </wgt>
<wgt id='1452'> +4.0690161E-01 </wgt>
<wgt id='1453'> +4.0977232E-01 </wgt>
<wgt id='1454'> +4.0799045E-01 </wgt>
<wgt id='1455'> +4.0916852E-01 </wgt>
<wgt id='1456'> +4.0768453E-01 </wgt>
<wgt id='1457'> +4.0955105E-01 </wgt>
<wgt id='1458'> +4.0831062E-01 </wgt>
<wgt id='1459'> +4.0839010E-01 </wgt>
<wgt id='1460'> +4.1034481E-01 </wgt>
<wgt id='1461'> +4.0598755E-01 </wgt>
<wgt id='1462'> +4.0741570E-01 </wgt>
<wgt id='1463'> +4.0916130E-01 </wgt>
<wgt id='1464'> +4.0944726E-01 </wgt>
<wgt id='1465'> +4.0693503E-01 </wgt>
<wgt id='1466'> +4.1129356E-01 </wgt>
<wgt id='1467'> +4.0629888E-01 </wgt>
<wgt id='1468'> +4.0990953E-01 </wgt>
<wgt id='1469'> +4.0687002E-01 </wgt>
<wgt id='1470'> +4.0856855E-01 </wgt>
<wgt id='1471'> +4.0808023E-01 </wgt>
<wgt id='1472'> +4.0881280E-01 </wgt>
<wgt id='1473'> +4.0786562E-01 </wgt>
<wgt id='1474'> +4.0809714E-01 </wgt>
<wgt id='1475'> +4.0843508E-01 </wgt>
<wgt id='1476'> +4.0871057E-01 </wgt>
<wgt id='1477'> +4.0801669E-01 </wgt>
<wgt id='1478'> +4.0803808E-01 </wgt>
<wgt id='1479'> +4.0687225E-01 </wgt>
<wgt id='1480'> +4.0791436E-01 </wgt>
<wgt id='1481'> +4.0870508E-01 </wgt>
<wgt id='1482'> +4.0788958E-01 </wgt>
<wgt id='1483'> +4.0874790E-01 </wgt>
<wgt id='1484'> +4.0632591E-01 </wgt>
<wgt id='1485'> +4.1047179E-01 </wgt>
<wgt id='1486'> +4.0789806E-01 </wgt>
<wgt id='1487'> +4.0863433E-01 </wgt>
<wgt id='1488'> +4.0773039E-01 </wgt>
<wgt id='1489'> +4.0980358E-01 </wgt>
<wgt id='1490'> +4.1136409E-01 </wgt>
<wgt id='1491'> +4.0514169E-01 </wgt>
<wgt id='1492'> +4.0974478E-01 </wgt>
<wgt id='1493'> +4.0884037E-01 </wgt>
<wgt id='1494'> +3.8732864E-01 </wgt>
<wgt id='1495'> +3.8532492E-01 </wgt>
<wgt id='1496'> +3.8606935E-01 </wgt>
<wgt id='1497'> +3.8673583E-01 </wgt>
<wgt id='1498'> +3.8786550E-01 </wgt>
<wgt id='1499'> +3.8731805E-01 </wgt>
<wgt id='1500'> +3.9121053E-01 </wgt>
<wgt id='1501'> +3.9049147E-01 </wgt>
<wgt id='1502'> +3.8972069E-01 </wgt>
<wgt id='1503'> +3.8894340E-01 </wgt>
<wgt id='1504'> +3.8816481E-01 </wgt>
<wgt id='1505'> +3.8652197E-01 </wgt>
<wgt id='1506'> +3.8570580E-01 </wgt>
<wgt id='1507'> +3.8488131E-01 </wgt>
<wgt id='1508'> +3.8731805E-01 </wgt>
<wgt id='1509'> +3.8792896E-01 </wgt>
<wgt id='1510'> +3.8759218E-01 </wgt>
<wgt id='1511'> +3.8706263E-01 </wgt>
<wgt id='1512'> +3.8683659E-01 </wgt>
<wgt id='1513'> +3.9260202E-01 </wgt>
<wgt id='1514'> +3.9244992E-01 </wgt>
<wgt id='1515'> +3.9278157E-01 </wgt>
<wgt id='1516'> +3.9317839E-01 </wgt>
<wgt id='1517'> +3.9201307E-01 </wgt>
<wgt id='1518'> +3.9340128E-01 </wgt>
<wgt id='1519'> +3.9226815E-01 </wgt>
<wgt id='1520'> +3.9449595E-01 </wgt>
<wgt id='1521'> +3.9071191E-01 </wgt>
<wgt id='1522'> +3.9186422E-01 </wgt>
<wgt id='1523'> +3.9330162E-01 </wgt>
<wgt id='1524'> +3.9464412E-01 </wgt>
<wgt id='1525'> +3.9171768E-01 </wgt>
<wgt id='1526'> +3.9251325E-01 </wgt>
<wgt id='1527'> +3.9271673E-01 </wgt>
<wgt id='1528'> +3.9208188E-01 </wgt>
<wgt id='1529'> +3.9316152E-01 </wgt>
<wgt id='1530'> +3.9528026E-01 </wgt>
<wgt id='1531'> +3.9107319E-01 </wgt>
<wgt id='1532'> +3.9397796E-01 </wgt>
<wgt id='1533'> +3.9069155E-01 </wgt>
<wgt id='1534'> +3.9157402E-01 </wgt>
<wgt id='1535'> +3.9330645E-01 </wgt>
<wgt id='1536'> +3.9092174E-01 </wgt>
<wgt id='1537'> +3.9423608E-01 </wgt>
<wgt id='1538'> +3.9148800E-01 </wgt>
<wgt id='1539'> +3.9519227E-01 </wgt>
<wgt id='1540'> +3.9214506E-01 </wgt>
<wgt id='1541'> +3.9267211E-01 </wgt>
<wgt id='1542'> +3.9238712E-01 </wgt>
<wgt id='1543'> +3.9347336E-01 </wgt>
<wgt id='1544'> +3.9219856E-01 </wgt>
<wgt id='1545'> +3.9270222E-01 </wgt>
<wgt id='1546'> +3.9213603E-01 </wgt>
<wgt id='1547'> +3.9260854E-01 </wgt>
<wgt id='1548'> +3.9153616E-01 </wgt>
<wgt id='1549'> +3.9225571E-01 </wgt>
<wgt id='1550'> +3.9263150E-01 </wgt>
<wgt id='1551'> +3.9229645E-01 </wgt>
<wgt id='1552'> +3.9195633E-01 </wgt>
<wgt id='1553'> +3.9293403E-01 </wgt>
<wgt id='1554'> +3.9355474E-01 </wgt>
<wgt id='1555'> +3.9030135E-01 </wgt>
<wgt id='1556'> +3.9309262E-01 </wgt>
<wgt id='1557'> +3.9243486E-01 </wgt>
<wgt id='1558'> +3.9050952E-01 </wgt>
<wgt id='1559'> +3.9406491E-01 </wgt>
<wgt id='1560'> +3.9470037E-01 </wgt>
<wgt id='1561'> +3.9163181E-01 </wgt>
<wgt id='1562'> +3.9090599E-01 </wgt>
<wgt id='1563'> +3.9365965E-01 </wgt>
<wgt id='1564'> +3.9260202E-01 </wgt>
<wgt id='1565'> +3.9132172E-01 </wgt>
<wgt id='1566'> +3.9279836E-01 </wgt>
<wgt id='1567'> +3.9209145E-01 </wgt>
<wgt id='1568'> +3.9601086E-01 </wgt>
<wgt id='1569'> +3.9527553E-01 </wgt>
<wgt id='1570'> +3.9446514E-01 </wgt>
<wgt id='1571'> +3.9364853E-01 </wgt>
<wgt id='1572'> +3.9287939E-01 </wgt>
<wgt id='1573'> +3.9121537E-01 </wgt>
<wgt id='1574'> +3.9020859E-01 </wgt>
<wgt id='1575'> +3.8939170E-01 </wgt>
<wgt id='1576'> +3.9209145E-01 </wgt>
<wgt id='1577'> +3.9256640E-01 </wgt>
<wgt id='1578'> +3.9231702E-01 </wgt>
<wgt id='1579'> +3.9188977E-01 </wgt>
<wgt id='1580'> +3.9172900E-01 </wgt>
<wgt id='1581'> +3.9140894E-01 </wgt>
<wgt id='1582'> +3.9186588E-01 </wgt>
<wgt id='1583'> +3.9307546E-01 </wgt>
<wgt id='1584'> +3.9003986E-01 </wgt>
<wgt id='1585'> +3.9266288E-01 </wgt>
<wgt id='1586'> +3.8829043E-01 </wgt>
<wgt id='1587'> +3.8814107E-01 </wgt>
<wgt id='1588'> +3.9461403E-01 </wgt>
<wgt id='1589'> +3.9111110E-01 </wgt>
<wgt id='1590'> +3.9291019E-01 </wgt>
<wgt id='1591'> +3.9082904E-01 </wgt>
<wgt id='1592'> +3.8901696E-01 </wgt>
<wgt id='1593'> +3.9217955E-01 </wgt>
<wgt id='1594'> +3.9083220E-01 </wgt>
<wgt id='1595'> +3.9097915E-01 </wgt>
<wgt id='1596'> +3.9398885E-01 </wgt>
<wgt id='1597'> +3.9248854E-01 </wgt>
<wgt id='1598'> +3.9173799E-01 </wgt>
<wgt id='1599'> +3.9143745E-01 </wgt>
<wgt id='1600'> +3.9243932E-01 </wgt>
<wgt id='1601'> +3.9057969E-01 </wgt>
<wgt id='1602'> +3.9225851E-01 </wgt>
<wgt id='1603'> +3.9221603E-01 </wgt>
<wgt id='1604'> +3.9144771E-01 </wgt>
<wgt id='1605'> +3.9068069E-01 </wgt>
<wgt id='1606'> +3.9181708E-01 </wgt>
<wgt id='1607'> +3.9175386E-01 </wgt>
<wgt id='1608'> +3.9161937E-01 </wgt>
<wgt id='1609'> +3.9221584E-01 </wgt>
<wgt id='1610'> +3.9110295E-01 </wgt>
<wgt id='1611'> +3.9309285E-01 </wgt>
<wgt id='1612'> +3.8729121E-01 </wgt>
<wgt id='1613'> +3.8708350E-01 </wgt>
<wgt id='1614'> +3.8758073E-01 </wgt>
<wgt id='1615'> +3.8758322E-01 </wgt>
<wgt id='1616'> +3.8706733E-01 </wgt>
<wgt id='1617'> +3.8714284E-01 </wgt>
<wgt id='1618'> +3.8784607E-01 </wgt>
<wgt id='1619'> +3.8647203E-01 </wgt>
<wgt id='1620'> +3.8691798E-01 </wgt>
<wgt id='1621'> +3.8742736E-01 </wgt>
<wgt id='1622'> +3.8797753E-01 </wgt>
<wgt id='1623'> +3.8666633E-01 </wgt>
<wgt id='1624'> +3.8640128E-01 </wgt>
<wgt id='1625'> +3.8679704E-01 </wgt>
<wgt id='1626'> +3.8839230E-01 </wgt>
<wgt id='1627'> +3.8673842E-01 </wgt>
<wgt id='1628'> +3.8754810E-01 </wgt>
<wgt id='1629'> +3.8777549E-01 </wgt>
<wgt id='1630'> +3.8717957E-01 </wgt>
<wgt id='1631'> +3.8776259E-01 </wgt>
<wgt id='1632'> +3.8770565E-01 </wgt>
<wgt id='1633'> +3.8724977E-01 </wgt>
<wgt id='1634'> +3.8817450E-01 </wgt>
<wgt id='1635'> +3.8666359E-01 </wgt>
<wgt id='1636'> +3.8679206E-01 </wgt>
<wgt id='1637'> +3.8819761E-01 </wgt>
<wgt id='1638'> +3.8714530E-01 </wgt>
<wgt id='1639'> +3.8822098E-01 </wgt>
<wgt id='1640'> +3.8756031E-01 </wgt>
<wgt id='1641'> +3.8407482E-01 </wgt>
<wgt id='1642'> +3.8630422E-01 </wgt>
<wgt id='1643'> +3.8726956E-01 </wgt>
<wgt id='1644'> +3.8611765E-01 </wgt>
<wgt id='1645'> +3.8675196E-01 </wgt>
<wgt id='1646'> +3.8809866E-01 </wgt>
<wgt id='1647'> +3.8666671E-01 </wgt>
<wgt id='1648'> +3.8702593E-01 </wgt>
<wgt id='1649'> +3.8793421E-01 </wgt>
<wgt id='1650'> +3.8690938E-01 </wgt>
<wgt id='1651'> +3.8722564E-01 </wgt>
<wgt id='1652'> +3.8708810E-01 </wgt>
<wgt id='1653'> +3.8731175E-01 </wgt>
<wgt id='1654'> +3.8693654E-01 </wgt>
<wgt id='1655'> +3.8786194E-01 </wgt>
<wgt id='1656'> +3.8740799E-01 </wgt>
<wgt id='1657'> +3.8705086E-01 </wgt>
<wgt id='1658'> +3.8775222E-01 </wgt>
<wgt id='1659'> +3.8812596E-01 </wgt>
<wgt id='1660'> +3.8726992E-01 </wgt>
<wgt id='1661'> +3.8737852E-01 </wgt>
<wgt id='1662'> +3.8741814E-01 </wgt>
<wgt id='1663'> +3.8810312E-01 </wgt>
<wgt id='1664'> +3.8750289E-01 </wgt>
<wgt id='1665'> +3.8753200E-01 </wgt>
<wgt id='1666'> +3.8774815E-01 </wgt>
<wgt id='1667'> +3.8711485E-01 </wgt>
<wgt id='1668'> +3.8706672E-01 </wgt>
<wgt id='1669'> +3.8727717E-01 </wgt>
<wgt id='1670'> +3.8685020E-01 </wgt>
<wgt id='1671'> +3.8743578E-01 </wgt>
<wgt id='1672'> +3.8781426E-01 </wgt>
<wgt id='1673'> +3.8737675E-01 </wgt>
<wgt id='1674'> +3.8721539E-01 </wgt>
<wgt id='1675'> +3.8711406E-01 </wgt>
<wgt id='1676'> +3.8668267E-01 </wgt>
<wgt id='1677'> +3.8735650E-01 </wgt>
<wgt id='1678'> +3.8747548E-01 </wgt>
<wgt id='1679'> +3.8772070E-01 </wgt>
<wgt id='1680'> +3.8809147E-01 </wgt>
<wgt id='1681'> +3.8723935E-01 </wgt>
<wgt id='1682'> +3.8713961E-01 </wgt>
<wgt id='1683'> +3.8724604E-01 </wgt>
<wgt id='1684'> +3.8730558E-01 </wgt>
<wgt id='1685'> +3.8704712E-01 </wgt>
<wgt id='1686'> +3.8721054E-01 </wgt>
<wgt id='1687'> +3.8684198E-01 </wgt>
<wgt id='1688'> +3.8713519E-01 </wgt>
<wgt id='1689'> +3.8742566E-01 </wgt>
<wgt id='1690'> +3.8756633E-01 </wgt>
<wgt id='1691'> +3.8737866E-01 </wgt>
<wgt id='1692'> +3.8740087E-01 </wgt>
<wgt id='1693'> +3.8764852E-01 </wgt>
<wgt id='1694'> +3.8765764E-01 </wgt>
<wgt id='1695'> +3.8756934E-01 </wgt>
<wgt id='1696'> +3.8719305E-01 </wgt>
<wgt id='1697'> +3.8732618E-01 </wgt>
<wgt id='1698'> +3.8700517E-01 </wgt>
<wgt id='1699'> +3.8724446E-01 </wgt>
<wgt id='1700'> +3.8706638E-01 </wgt>
<wgt id='1701'> +3.8743642E-01 </wgt>
<wgt id='1702'> +3.8730760E-01 </wgt>
<wgt id='1703'> +3.8716798E-01 </wgt>
<wgt id='1704'> +3.8731704E-01 </wgt>
<wgt id='1705'> +3.8703722E-01 </wgt>
<wgt id='1706'> +3.8717875E-01 </wgt>
<wgt id='1707'> +3.8722357E-01 </wgt>
<wgt id='1708'> +3.8719127E-01 </wgt>
<wgt id='1709'> +3.8747143E-01 </wgt>
<wgt id='1710'> +3.8721116E-01 </wgt>
<wgt id='1711'> +3.8724915E-01 </wgt>
<wgt id='1712'> +3.8719004E-01 </wgt>
<wgt id='1713'> +3.8370890E-01 </wgt>
<wgt id='1714'> +3.9020793E-01 </wgt>
<wgt id='1715'> +3.7680179E-01 </wgt>
<wgt id='1716'> +3.7235847E-01 </wgt>
<wgt id='1717'> +3.7647739E-01 </wgt>
<wgt id='1718'> +3.7373119E-01 </wgt>
<wgt id='1719'> +3.6978714E-01 </wgt>
<wgt id='1720'> +3.8686429E-01 </wgt>
<wgt id='1721'> +3.7156337E-01 </wgt>
<wgt id='1722'> +3.7525704E-01 </wgt>
<wgt id='1723'> +3.7866562E-01 </wgt>
<wgt id='1724'> +3.7870432E-01 </wgt>
<wgt id='1725'> +3.8259231E-01 </wgt>
<wgt id='1726'> +3.8007608E-01 </wgt>
<wgt id='1727'> +3.7829382E-01 </wgt>
<wgt id='1728'> +3.7653452E-01 </wgt>
<wgt id='1729'> +3.7806040E-01 </wgt>
<wgt id='1730'> +3.7364426E-01 </wgt>
<wgt id='1731'> +3.5280088E-01 </wgt>
<wgt id='1732'> +3.8166502E-01 </wgt>
<wgt id='1733'> +3.7763508E-01 </wgt>
<wgt id='1734'> +3.8011154E-01 </wgt>
<wgt id='1735'> +3.6524186E-01 </wgt>
<wgt id='1736'> +3.7966713E-01 </wgt>
<wgt id='1737'> +3.7809039E-01 </wgt>
<wgt id='1738'> +3.7962550E-01 </wgt>
<wgt id='1739'> +3.7639964E-01 </wgt>
<wgt id='1740'> +3.7868513E-01 </wgt>
<wgt id='1741'> +3.7203087E-01 </wgt>
<wgt id='1742'> +3.8288310E-01 </wgt>
<wgt id='1743'> +3.6745352E-01 </wgt>
<wgt id='1744'> +3.8043117E-01 </wgt>
<wgt id='1745'> +3.6845677E-01 </wgt>
<wgt id='1746'> +3.7543784E-01 </wgt>
<wgt id='1747'> +3.7968752E-01 </wgt>
<wgt id='1748'> +3.7246468E-01 </wgt>
<wgt id='1749'> +3.8485617E-01 </wgt>
<wgt id='1750'> +3.7390042E-01 </wgt>
<wgt id='1751'> +3.7800624E-01 </wgt>
<wgt id='1752'> +3.6804395E-01 </wgt>
<wgt id='1753'> +3.7516252E-01 </wgt>
<wgt id='1754'> +3.8064177E-01 </wgt>
<wgt id='1755'> +3.7991858E-01 </wgt>
<wgt id='1756'> +3.7295570E-01 </wgt>
<wgt id='1757'> +3.7195178E-01 </wgt>
<wgt id='1758'> +3.7611351E-01 </wgt>
<wgt id='1759'> +3.7738884E-01 </wgt>
<wgt id='1760'> +3.7253652E-01 </wgt>
<wgt id='1761'> +3.8004950E-01 </wgt>
<wgt id='1762'> +3.7829382E-01 </wgt>
<wgt id='1763'> +3.7960543E-01 </wgt>
<wgt id='1764'> +3.8539614E-01 </wgt>
<wgt id='1765'> +3.8321069E-01 </wgt>
<wgt id='1766'> +3.8719475E-01 </wgt>
<wgt id='1767'> +3.7106836E-01 </wgt>
<wgt id='1768'> +3.6766613E-01 </wgt>
<wgt id='1769'> +3.8055717E-01 </wgt>
<wgt id='1770'> +3.8357195E-01 </wgt>
<wgt id='1771'> +3.7082385E-01 </wgt>
<wgt id='1772'> +3.7502760E-01 </wgt>
<wgt id='1773'> +3.7985595E-01 </wgt>
<wgt id='1774'> +3.6793785E-01 </wgt>
<wgt id='1775'> +3.7720386E-01 </wgt>
<wgt id='1776'> +3.8122548E-01 </wgt>
<wgt id='1777'> +3.8019461E-01 </wgt>
<wgt id='1778'> +3.7411062E-01 </wgt>
<wgt id='1779'> +3.7312457E-01 </wgt>
<wgt id='1780'> +3.8574550E-01 </wgt>
<wgt id='1781'> +3.8019759E-01 </wgt>
<wgt id='1782'> +3.8012774E-01 </wgt>
<wgt id='1783'> +3.7048028E-01 </wgt>
<wgt id='1784'> +3.7954041E-01 </wgt>
<wgt id='1785'> +3.7894987E-01 </wgt>
<wgt id='1786'> +3.8175683E-01 </wgt>
<wgt id='1787'> +3.8178995E-01 </wgt>
<wgt id='1788'> +3.7266045E-01 </wgt>
<wgt id='1789'> +3.8074420E-01 </wgt>
<wgt id='1790'> +3.8197948E-01 </wgt>
<wgt id='1791'> +3.6576951E-01 </wgt>
<wgt id='1792'> +3.8144292E-01 </wgt>
<wgt id='1793'> +3.8177272E-01 </wgt>
<wgt id='1794'> +3.7024068E-01 </wgt>
<wgt id='1795'> +3.6789826E-01 </wgt>
<wgt id='1796'> +3.8017413E-01 </wgt>
<wgt id='1797'> +3.8000524E-01 </wgt>
<wgt id='1798'> +3.8079360E-01 </wgt>
<wgt id='1799'> +3.7900596E-01 </wgt>
<wgt id='1800'> +3.7844178E-01 </wgt>
<wgt id='1801'> +3.7291462E-01 </wgt>
<wgt id='1802'> +3.7646752E-01 </wgt>
<wgt id='1803'> +3.7822714E-01 </wgt>
<wgt id='1804'> +3.8192520E-01 </wgt>
<wgt id='1805'> +3.7559405E-01 </wgt>
<wgt id='1806'> +3.7613386E-01 </wgt>
<wgt id='1807'> +3.7072034E-01 </wgt>
<wgt id='1808'> +3.7466877E-01 </wgt>
<wgt id='1809'> +3.7507285E-01 </wgt>
<wgt id='1810'> +3.7362869E-01 </wgt>
<wgt id='1811'> +3.7906954E-01 </wgt>
<wgt id='1812'> +3.7384021E-01 </wgt>
<wgt id='1813'> +3.8154448E-01 </wgt>
<wgt id='1814'> +3.7603497E-01 </wgt>
<wgt id='1815'> +3.8422592E-01 </wgt>
<wgt id='1816'> +3.9862004E-01 </wgt>
<wgt id='1817'> +4.0621446E-01 </wgt>
<wgt id='1818'> +3.9529894E-01 </wgt>
<wgt id='1819'> +4.0686789E-01 </wgt>
<wgt id='1820'> +4.0331383E-01 </wgt>
<wgt id='1821'> +4.1425368E-01 </wgt>
<wgt id='1822'> +4.0396886E-01 </wgt>
<wgt id='1823'> +3.9688920E-01 </wgt>
<wgt id='1824'> +3.9562292E-01 </wgt>
<wgt id='1825'> +3.9977193E-01 </wgt>
<wgt id='1826'> +3.9385658E-01 </wgt>
<wgt id='1827'> +3.9232917E-01 </wgt>
<wgt id='1828'> +4.0456828E-01 </wgt>
<wgt id='1829'> +4.0328266E-01 </wgt>
<wgt id='1830'> +3.9566173E-01 </wgt>
<wgt id='1831'> +4.0368225E-01 </wgt>
<wgt id='1832'> +3.9464753E-01 </wgt>
<wgt id='1833'> +3.9752847E-01 </wgt>
<wgt id='1834'> +3.9419326E-01 </wgt>
<wgt id='1835'> +3.9927335E-01 </wgt>
<wgt id='1836'> +4.0053160E-01 </wgt>
<wgt id='1837'> +4.0493542E-01 </wgt>
<wgt id='1838'> +3.9157828E-01 </wgt>
<wgt id='1839'> +4.1400096E-01 </wgt>
<wgt id='1840'> +3.9859551E-01 </wgt>
<wgt id='1841'> +3.9668009E-01 </wgt>
<wgt id='1842'> +4.0407720E-01 </wgt>
<wgt id='1843'> +3.9198942E-01 </wgt>
<wgt id='1844'> +3.9945514E-01 </wgt>
<wgt id='1845'> +4.0106621E-01 </wgt>
<wgt id='1846'> +4.0267966E-01 </wgt>
<wgt id='1847'> +3.9467569E-01 </wgt>
<wgt id='1848'> +3.9939425E-01 </wgt>
<wgt id='1849'> +3.9494698E-01 </wgt>
<wgt id='1850'> +3.9930934E-01 </wgt>
<wgt id='1851'> +3.9858397E-01 </wgt>
<wgt id='1852'> +3.9633700E-01 </wgt>
<wgt id='1853'> +3.9399344E-01 </wgt>
<wgt id='1854'> +4.0044846E-01 </wgt>
<wgt id='1855'> +3.9902689E-01 </wgt>
<wgt id='1856'> +3.9591377E-01 </wgt>
<wgt id='1857'> +4.0698048E-01 </wgt>
<wgt id='1858'> +3.9791663E-01 </wgt>
<wgt id='1859'> +3.9735153E-01 </wgt>
<wgt id='1860'> +3.9785894E-01 </wgt>
<wgt id='1861'> +3.9256342E-01 </wgt>
<wgt id='1862'> +4.0270786E-01 </wgt>
<wgt id='1863'> +3.9579596E-01 </wgt>
<wgt id='1864'> +3.9593403E-01 </wgt>
<wgt id='1865'> +4.0020419E-01 </wgt>
<wgt id='1866'> +3.9829984E-01 </wgt>
<wgt id='1867'> +4.0088946E-01 </wgt>
<wgt id='1868'> +3.9815734E-01 </wgt>
<wgt id='1869'> +4.0468582E-01 </wgt>
<wgt id='1870'> +3.9780700E-01 </wgt>
<wgt id='1871'> +3.9562978E-01 </wgt>
<wgt id='1872'> +3.9279181E-01 </wgt>
<wgt id='1873'> +4.0206727E-01 </wgt>
<wgt id='1874'> +3.9957193E-01 </wgt>
<wgt id='1875'> +3.9641679E-01 </wgt>
<wgt id='1876'> +3.9789427E-01 </wgt>
<wgt id='1877'> +3.9998633E-01 </wgt>
<wgt id='1878'> +3.9869417E-01 </wgt>
<wgt id='1879'> +4.0417919E-01 </wgt>
<wgt id='1880'> +3.8452831E-01 </wgt>
<wgt id='1881'> +3.9638609E-01 </wgt>
<wgt id='1882'> +3.9303546E-01 </wgt>
<wgt id='1883'> +4.1716259E-01 </wgt>
<wgt id='1884'> +3.9485218E-01 </wgt>
<wgt id='1885'> +3.9165508E-01 </wgt>
<wgt id='1886'> +3.8664376E-01 </wgt>
<wgt id='1887'> +3.9869180E-01 </wgt>
<wgt id='1888'> +4.0576344E-01 </wgt>
<wgt id='1889'> +4.0068680E-01 </wgt>
<wgt id='1890'> +4.0746928E-01 </wgt>
<wgt id='1891'> +3.9990797E-01 </wgt>
<wgt id='1892'> +4.0107260E-01 </wgt>
<wgt id='1893'> +3.9280193E-01 </wgt>
<wgt id='1894'> +4.0208010E-01 </wgt>
<wgt id='1895'> +4.0284478E-01 </wgt>
<wgt id='1896'> +3.9309419E-01 </wgt>
<wgt id='1897'> +3.9657457E-01 </wgt>
<wgt id='1898'> +3.9892406E-01 </wgt>
<wgt id='1899'> +3.9661541E-01 </wgt>
<wgt id='1900'> +3.9572024E-01 </wgt>
<wgt id='1901'> +3.9737467E-01 </wgt>
<wgt id='1902'> +3.9275058E-01 </wgt>
<wgt id='1903'> +3.9800711E-01 </wgt>
<wgt id='1904'> +4.0275739E-01 </wgt>
<wgt id='1905'> +3.9855764E-01 </wgt>
<wgt id='1906'> +3.9426297E-01 </wgt>
<wgt id='1907'> +3.9760278E-01 </wgt>
<wgt id='1908'> +3.9665444E-01 </wgt>
<wgt id='1909'> +3.9606869E-01 </wgt>
<wgt id='1910'> +4.0014458E-01 </wgt>
<wgt id='1911'> +3.8810492E-01 </wgt>
<wgt id='1912'> +3.9636532E-01 </wgt>
<wgt id='1913'> +3.9637693E-01 </wgt>
<wgt id='1914'> +4.0239922E-01 </wgt>
<wgt id='1915'> +4.0093623E-01 </wgt>
<wgt id='1916'> +3.9148330E-01 </wgt>
<wgt id='1917'> +4.0048441E-01 </wgt>
<wgt id='1918'> +4.0048914E-01 </wgt>
<wgt id='1919'> +3.9862004E-01 </wgt>
<wgt id='1920'> +4.0621446E-01 </wgt>
<wgt id='1921'> +3.9529894E-01 </wgt>
<wgt id='1922'> +4.0686789E-01 </wgt>
<wgt id='1923'> +4.0331383E-01 </wgt>
<wgt id='1924'> +4.1425368E-01 </wgt>
<wgt id='1925'> +4.0396886E-01 </wgt>
<wgt id='1926'> +3.9688920E-01 </wgt>
<wgt id='1927'> +3.9562292E-01 </wgt>
<wgt id='1928'> +3.9977193E-01 </wgt>
<wgt id='1929'> +3.9385658E-01 </wgt>
<wgt id='1930'> +3.9232917E-01 </wgt>
<wgt id='1931'> +4.0456828E-01 </wgt>
<wgt id='1932'> +4.0328266E-01 </wgt>
<wgt id='1933'> +3.9566173E-01 </wgt>
<wgt id='1934'> +4.0368225E-01 </wgt>
<wgt id='1935'> +3.9464753E-01 </wgt>
<wgt id='1936'> +3.9752847E-01 </wgt>
<wgt id='1937'> +3.9419326E-01 </wgt>
<wgt id='1938'> +3.9927335E-01 </wgt>
<wgt id='1939'> +4.0053160E-01 </wgt>
<wgt id='1940'> +4.0493542E-01 </wgt>
<wgt id='1941'> +3.9157828E-01 </wgt>
<wgt id='1942'> +4.1400096E-01 </wgt>
<wgt id='1943'> +3.9859551E-01 </wgt>
<wgt id='1944'> +3.9668009E-01 </wgt>
<wgt id='1945'> +4.0407720E-01 </wgt>
<wgt id='1946'> +3.9198942E-01 </wgt>
<wgt id='1947'> +3.9945514E-01 </wgt>
<wgt id='1948'> +4.0106621E-01 </wgt>
<wgt id='1949'> +4.0267966E-01 </wgt>
<wgt id='1950'> +3.9467569E-01 </wgt>
<wgt id='1951'> +3.9939425E-01 </wgt>
<wgt id='1952'> +3.9494698E-01 </wgt>
<wgt id='1953'> +3.9930934E-01 </wgt>
<wgt id='1954'> +3.9858397E-01 </wgt>
<wgt id='1955'> +3.9633700E-01 </wgt>
<wgt id='1956'> +3.9399344E-01 </wgt>
<wgt id='1957'> +4.0044846E-01 </wgt>
<wgt id='1958'> +3.9902689E-01 </wgt>
<wgt id='1959'> +3.9591377E-01 </wgt>
<wgt id='1960'> +4.0698048E-01 </wgt>
<wgt id='1961'> +3.9791663E-01 </wgt>
<wgt id='1962'> +3.9735153E-01 </wgt>
<wgt id='1963'> +3.9785894E-01 </wgt>
<wgt id='1964'> +3.9256342E-01 </wgt>
<wgt id='1965'> +4.0270786E-01 </wgt>
<wgt id='1966'> +3.9579596E-01 </wgt>
<wgt id='1967'> +3.9593403E-01 </wgt>
<wgt id='1968'> +4.0020419E-01 </wgt>
<wgt id='1969'> +3.9829984E-01 </wgt>
<wgt id='1970'> +4.0088946E-01 </wgt>
<wgt id='1971'> +3.9815734E-01 </wgt>
<wgt id='1972'> +4.0468582E-01 </wgt>
<wgt id='1973'> +3.9780700E-01 </wgt>
<wgt id='1974'> +3.9562978E-01 </wgt>
<wgt id='1975'> +3.9279181E-01 </wgt>
<wgt id='1976'> +4.0206727E-01 </wgt>
<wgt id='1977'> +3.9957193E-01 </wgt>
<wgt id='1978'> +3.9641679E-01 </wgt>
<wgt id='1979'> +3.9789427E-01 </wgt>
<wgt id='1980'> +3.9998633E-01 </wgt>
<wgt id='1981'> +3.9869417E-01 </wgt>
<wgt id='1982'> +4.0417919E-01 </wgt>
<wgt id='1983'> +3.8452831E-01 </wgt>
<wgt id='1984'> +3.9638609E-01 </wgt>
<wgt id='1985'> +3.9303546E-01 </wgt>
<wgt id='1986'> +4.1716259E-01 </wgt>
<wgt id='1987'> +3.9485218E-01 </wgt>
<wgt id='1988'> +3.9165508E-01 </wgt>
<wgt id='1989'> +3.8664376E-01 </wgt>
<wgt id='1990'> +3.9869180E-01 </wgt>
<wgt id='1991'> +4.0576344E-01 </wgt>
<wgt id='1992'> +4.0068680E-01 </wgt>
<wgt id='1993'> +4.0746928E-01 </wgt>
<wgt id='1994'> +3.9990797E-01 </wgt>
<wgt id='1995'> +4.0107260E-01 </wgt>
<wgt id='1996'> +3.9280193E-01 </wgt>
<wgt id='1997'> +4.0208010E-01 </wgt>
<wgt id='1998'> +4.0284478E-01 </wgt>
<wgt id='1999'> +3.9309419E-01 </wgt>
<wgt id='2000'> +3.9657457E-01 </wgt>
<wgt id='2001'> +3.9892406E-01 </wgt>
<wgt id='2002'> +3.9661541E-01 </wgt>
<wgt id='2003'> +3.9572024E-01 </wgt>
<wgt id='2004'> +3.9737467E-01 </wgt>
<wgt id='2005'> +3.9275058E-01 </wgt>
<wgt id='2006'> +3.9800711E-01 </wgt>
<wgt id='2007'> +4.0275739E-01 </wgt>
<wgt id='2008'> +3.9855764E-01 </wgt>
<wgt id='2009'> +3.9426297E-01 </wgt>
<wgt id='2010'> +3.9760278E-01 </wgt>
<wgt id='2011'> +3.9665444E-01 </wgt>
<wgt id='2012'> +3.9606869E-01 </wgt>
<wgt id='2013'> +4.0014458E-01 </wgt>
<wgt id='2014'> +3.8810492E-01 </wgt>
<wgt id='2015'> +3.9636532E-01 </wgt>
<wgt id='2016'> +3.9637693E-01 </wgt>
<wgt id='2017'> +4.0239922E-01 </wgt>
<wgt id='2018'> +4.0093623E-01 </wgt>
<wgt id='2019'> +3.9148330E-01 </wgt>
<wgt id='2020'> +3.9860734E-01 </wgt>
<wgt id='2021'> +3.9877533E-01 </wgt>
<wgt id='2022'> +3.9786041E-01 </wgt>
</rwgt>
</event>
<event>
13      2 +3.9556008E-01 1.37142400e+02 7.81860800e-03 1.16519900e-01
        1 -1    0    0  501    0 +0.0000000000e+00 +0.0000000000e+00 +4.8301935856e+02 4.8301935858e+02 5.0400000000e-03 0.0000e+00 -1.0000e+00
       21 -1    0    0  502  503 +0.0000000000e+00 +0.0000000000e+00 -4.0244316102e+02 4.0244316102e+02 0.0000000000e+00 0.0000e+00 1.0000e+00
 -8000001  2    1    2    0  503 +2.5321593904e+01 +1.7154748430e+01 -1.2752451882e+01 6.0091686387e+02 6.0000248645e+02 0.0000e+00 0.0000e+00
        2  1    1    2  501    0 -3.8579203193e+01 +1.0786382488e+01 +1.8416703160e+02 1.8847333101e+02 2.5500000000e-03 0.0000e+00 -1.0000e+00
        5  1    1    2  502    0 +1.3257609289e+01 -2.7941130918e+01 -9.0838382177e+01 9.6072324725e+01 4.6700000000e+00 0.0000e+00 -1.0000e+00
       -6  2    3    3    0  503 +3.9401033947e+01 -1.2184494992e+02 -2.3803049325e+02 3.2033608068e+02 1.7192456362e+02 0.0000e+00 0.0000e+00
       -5  1    6    6    0  503 +9.5369293336e+00 -1.1308596955e+02 -7.7435074878e+01 1.3746777532e+02 4.6700000000e+00 0.0000e+00 1.0000e+00
      -24  2    6    6    0    0 +2.9864104613e+01 -8.7589803736e+00 -1.6059541837e+02 1.8286830536e+02 8.1739489983e+01 0.0000e+00 0.0000e+00
        1  1    8    8  504    0 +1.3250168784e+01 -5.0817388601e+00 +5.9990138332e+00 1.5407116376e+01 5.0400000000e-03 0.0000e+00 -1.0000e+00
       -2  1    8    8    0  504 +1.6613935829e+01 -3.6772415135e+00 -1.6659443220e+02 1.6746118898e+02 2.5500000000e-03 0.0000e+00 1.0000e+00
       23  2    3    3    0    0 -1.4079440042e+01 +1.3899969835e+02 +2.2527804136e+02 2.8058078319e+02 9.1957779432e+01 0.0000e+00 0.0000e+00
        2  1   11   11  505    0 +1.4655489065e+01 +2.4709066723e+01 +2.8592936856e+00 2.8870346464e+01 2.5500000000e-03 0.0000e+00 -1.0000e+00
       -2  1   11   11    0  505 -2.8734929108e+01 +1.1429063163e+02 +2.2241874768e+02 2.5171043672e+02 2.5500000000e-03 0.0000e+00 1.0000e+00
<mgrwt>
<rscale>  1 0.73989210e+02</rscale>
<asrwt>0</asrwt>
<pdfrwt beam="1">  1       21 0.61914333e-01 0.13714242e+03</pdfrwt>
<pdfrwt beam="2">  1        1 0.74310670e-01 0.39917651e+02</pdfrwt>
<totfact> 0.15439886e+03</totfact>
</mgrwt>
<rwgt>
<wgt id='1001'> +3.9556008E-01 </wgt>
<wgt id='1002'> +2.7994023E-01 </wgt>
<wgt id='1003'> +2.7988317E-01 </wgt>
<wgt id='1004'> +3.2659989E-01 </wgt>
<wgt id='1005'> +2.3319293E-01 </wgt>
<wgt id='1006'> +3.5528271E-01 </wgt>
<wgt id='1007'> +2.5705911E-01 </wgt>
<wgt id='1008'> +2.5700938E-01 </wgt>
<wgt id='1009'> +2.9740189E-01 </wgt>
<wgt id='1010'> +2.1601392E-01 </wgt>
<wgt id='1011'> +4.4655330E-01 </wgt>
<wgt id='1012'> +3.0742781E-01 </wgt>
<wgt id='1013'> +3.0736123E-01 </wgt>
<wgt id='1014'> +3.6236539E-01 </wgt>
<wgt id='1015'> +2.5341750E-01 </wgt>
<wgt id='1016'> +3.7191055E-01 </wgt>
<wgt id='1017'> +2.6404158E-01 </wgt>
<wgt id='1018'> +2.6398873E-01 </wgt>
<wgt id='1019'> +3.0736123E-01 </wgt>
<wgt id='1020'> +2.2059659E-01 </wgt>
<wgt id='1021'> +3.3404126E-01 </wgt>
<wgt id='1022'> +2.4245994E-01 </wgt>
<wgt id='1023'> +2.4241394E-01 </wgt>
<wgt id='1024'> +2.7988317E-01 </wgt>
<wgt id='1025'> +2.0434553E-01 </wgt>
<wgt id='1026'> +4.1985501E-01 </wgt>
<wgt id='1027'> +2.8996805E-01 </wgt>
<wgt id='1028'> +2.8990632E-01 </wgt>
<wgt id='1029'> +3.4101992E-01 </wgt>
<wgt id='1030'> +2.3972868E-01 </wgt>
<wgt id='1031'> +4.2119835E-01 </wgt>
<wgt id='1032'> +2.9746342E-01 </wgt>
<wgt id='1033'> +2.9740189E-01 </wgt>
<wgt id='1034'> +3.4774357E-01 </wgt>
<wgt id='1035'> +2.4707575E-01 </wgt>
<wgt id='1036'> +3.7831039E-01 </wgt>
<wgt id='1037'> +2.7315002E-01 </wgt>
<wgt id='1038'> +2.7309637E-01 </wgt>
<wgt id='1039'> +3.1665533E-01 </wgt>
<wgt id='1040'> +2.2887401E-01 </wgt>
<wgt id='1041'> +4.7549669E-01 </wgt>
<wgt id='1042'> +3.2667161E-01 </wgt>
<wgt id='1043'> +3.2659989E-01 </wgt>
<wgt id='1044'> +3.8582448E-01 </wgt>
<wgt id='1045'> +2.6850436E-01 </wgt>
<wgt id='1046'> +3.9556008E-01 </wgt>
<wgt id='1047'> +3.9556008E-01 </wgt>
<wgt id='1048'> +3.9556008E-01 </wgt>
<wgt id='1049'> +3.9537073E-01 </wgt>
<wgt id='1050'> +3.9495211E-01 </wgt>
<wgt id='1051'> +3.9602660E-01 </wgt>
<wgt id='1052'> +3.9533295E-01 </wgt>
<wgt id='1053'> +3.9680207E-01 </wgt>
<wgt id='1054'> +3.9508268E-01 </wgt>
<wgt id='1055'> +3.9407698E-01 </wgt>
<wgt id='1056'> +3.9443589E-01 </wgt>
<wgt id='1057'> +3.9520641E-01 </wgt>
<wgt id='1058'> +3.9533254E-01 </wgt>
<wgt id='1059'> +3.9609333E-01 </wgt>
<wgt id='1060'> +3.9521510E-01 </wgt>
<wgt id='1061'> +3.9637371E-01 </wgt>
<wgt id='1062'> +3.9720587E-01 </wgt>
<wgt id='1063'> +3.9794869E-01 </wgt>
<wgt id='1064'> +3.9570542E-01 </wgt>
<wgt id='1065'> +3.9710914E-01 </wgt>
<wgt id='1066'> +3.9373347E-01 </wgt>
<wgt id='1067'> +3.9577102E-01 </wgt>
<wgt id='1068'> +3.9633094E-01 </wgt>
<wgt id='1069'> +3.9409233E-01 </wgt>
<wgt id='1070'> +3.9623281E-01 </wgt>
<wgt id='1071'> +3.9539277E-01 </wgt>
<wgt id='1072'> +3.9619143E-01 </wgt>
<wgt id='1073'> +3.9398351E-01 </wgt>
<wgt id='1074'> +3.9545723E-01 </wgt>
<wgt id='1075'> +3.9651574E-01 </wgt>
<wgt id='1076'> +3.9622708E-01 </wgt>
<wgt id='1077'> +3.9664830E-01 </wgt>
<wgt id='1078'> +3.9485481E-01 </wgt>
<wgt id='1079'> +3.9833321E-01 </wgt>
<wgt id='1080'> +3.9572363E-01 </wgt>
<wgt id='1081'> +3.9713674E-01 </wgt>
<wgt id='1082'> +3.9632619E-01 </wgt>
<wgt id='1083'> +3.9469242E-01 </wgt>
<wgt id='1084'> +3.9452882E-01 </wgt>
<wgt id='1085'> +3.9529461E-01 </wgt>
<wgt id='1086'> +3.9458841E-01 </wgt>
<wgt id='1087'> +3.9584224E-01 </wgt>
<wgt id='1088'> +3.9516180E-01 </wgt>
<wgt id='1089'> +3.9625376E-01 </wgt>
<wgt id='1090'> +3.9637321E-01 </wgt>
<wgt id='1091'> +3.9538832E-01 </wgt>
<wgt id='1092'> +3.9432909E-01 </wgt>
<wgt id='1093'> +3.9485387E-01 </wgt>
<wgt id='1094'> +3.9621894E-01 </wgt>
<wgt id='1095'> +3.9420315E-01 </wgt>
<wgt id='1096'> +3.9481623E-01 </wgt>
<wgt id='1097'> +3.9547023E-01 </wgt>
<wgt id='1098'> +3.9511308E-01 </wgt>
<wgt id='1099'> +3.9505839E-01 </wgt>
<wgt id='1100'> +3.9621420E-01 </wgt>
<wgt id='1101'> +3.9664504E-01 </wgt>
<wgt id='1102'> +3.9668643E-01 </wgt>
<wgt id='1103'> +3.9611851E-01 </wgt>
<wgt id='1104'> +3.9511965E-01 </wgt>
<wgt id='1105'> +3.9618065E-01 </wgt>
<wgt id='1106'> +3.9588404E-01 </wgt>
<wgt id='1107'> +3.9601087E-01 </wgt>
<wgt id='1108'> +3.9607828E-01 </wgt>
<wgt id='1109'> +3.9627983E-01 </wgt>
<wgt id='1110'> +3.9601154E-01 </wgt>
<wgt id='1111'> +3.9498309E-01 </wgt>
<wgt id='1112'> +3.9507787E-01 </wgt>
<wgt id='1113'> +3.9671194E-01 </wgt>
<wgt id='1114'> +3.9578907E-01 </wgt>
<wgt id='1115'> +3.9587920E-01 </wgt>
<wgt id='1116'> +3.9544532E-01 </wgt>
<wgt id='1117'> +3.9560769E-01 </wgt>
<wgt id='1118'> +3.9647291E-01 </wgt>
<wgt id='1119'> +3.9572571E-01 </wgt>
<wgt id='1120'> +3.9545667E-01 </wgt>
<wgt id='1121'> +3.9528683E-01 </wgt>
<wgt id='1122'> +3.9522586E-01 </wgt>
<wgt id='1123'> +3.9546735E-01 </wgt>
<wgt id='1124'> +3.9566736E-01 </wgt>
<wgt id='1125'> +3.9564207E-01 </wgt>
<wgt id='1126'> +3.9527482E-01 </wgt>
<wgt id='1127'> +3.9539897E-01 </wgt>
<wgt id='1128'> +3.9536794E-01 </wgt>
<wgt id='1129'> +3.9567364E-01 </wgt>
<wgt id='1130'> +3.9575392E-01 </wgt>
<wgt id='1131'> +3.9574716E-01 </wgt>
<wgt id='1132'> +3.9558165E-01 </wgt>
<wgt id='1133'> +3.9520988E-01 </wgt>
<wgt id='1134'> +3.9548641E-01 </wgt>
<wgt id='1135'> +3.9557934E-01 </wgt>
<wgt id='1136'> +3.9580539E-01 </wgt>
<wgt id='1137'> +3.9583136E-01 </wgt>
<wgt id='1138'> +3.9591949E-01 </wgt>
<wgt id='1139'> +3.9546138E-01 </wgt>
<wgt id='1140'> +3.9547215E-01 </wgt>
<wgt id='1141'> +3.9529777E-01 </wgt>
<wgt id='1142'> +3.9579379E-01 </wgt>
<wgt id='1143'> +3.9549755E-01 </wgt>
<wgt id='1144'> +3.9529691E-01 </wgt>
<wgt id='1145'> +3.9554355E-01 </wgt>
<wgt id='1146'> +3.9579631E-01 </wgt>
<wgt id='1147'> +3.9564754E-01 </wgt>
<wgt id='1148'> +3.9556008E-01 </wgt>
<wgt id='1149'> +3.9218757E-01 </wgt>
<wgt id='1150'> +4.0614561E-01 </wgt>
<wgt id='1151'> +3.9375723E-01 </wgt>
<wgt id='1152'> +3.8401962E-01 </wgt>
<wgt id='1153'> +3.9033251E-01 </wgt>
<wgt id='1154'> +3.9785134E-01 </wgt>
<wgt id='1155'> +4.0208878E-01 </wgt>
<wgt id='1156'> +4.0066769E-01 </wgt>
<wgt id='1157'> +3.9135320E-01 </wgt>
<wgt id='1158'> +3.9580552E-01 </wgt>
<wgt id='1159'> +3.7679720E-01 </wgt>
<wgt id='1160'> +3.8415520E-01 </wgt>
<wgt id='1161'> +3.9629873E-01 </wgt>
<wgt id='1162'> +3.8379496E-01 </wgt>
<wgt id='1163'> +3.9191883E-01 </wgt>
<wgt id='1164'> +3.8963564E-01 </wgt>
<wgt id='1165'> +3.8897670E-01 </wgt>
<wgt id='1166'> +3.9901383E-01 </wgt>
<wgt id='1167'> +3.9876787E-01 </wgt>
<wgt id='1168'> +3.8903574E-01 </wgt>
<wgt id='1169'> +3.8482668E-01 </wgt>
<wgt id='1170'> +3.9692847E-01 </wgt>
<wgt id='1171'> +3.9137397E-01 </wgt>
<wgt id='1172'> +3.9646863E-01 </wgt>
<wgt id='1173'> +3.9001125E-01 </wgt>
<wgt id='1174'> +3.9593233E-01 </wgt>
<wgt id='1175'> +3.8823691E-01 </wgt>
<wgt id='1176'> +3.7962072E-01 </wgt>
<wgt id='1177'> +4.0194123E-01 </wgt>
<wgt id='1178'> +3.9018767E-01 </wgt>
<wgt id='1179'> +4.0035992E-01 </wgt>
<wgt id='1180'> +3.9696049E-01 </wgt>
<wgt id='1181'> +3.9742467E-01 </wgt>
<wgt id='1182'> +3.9841139E-01 </wgt>
<wgt id='1183'> +3.9130522E-01 </wgt>
<wgt id='1184'> +3.8472818E-01 </wgt>
<wgt id='1185'> +3.9535562E-01 </wgt>
<wgt id='1186'> +3.9039127E-01 </wgt>
<wgt id='1187'> +3.8680266E-01 </wgt>
<wgt id='1188'> +3.9118732E-01 </wgt>
<wgt id='1189'> +3.8282172E-01 </wgt>
<wgt id='1190'> +3.9452450E-01 </wgt>
<wgt id='1191'> +4.0043248E-01 </wgt>
<wgt id='1192'> +3.9610462E-01 </wgt>
<wgt id='1193'> +3.9802040E-01 </wgt>
<wgt id='1194'> +3.9628175E-01 </wgt>
<wgt id='1195'> +3.8451445E-01 </wgt>
<wgt id='1196'> +3.9143502E-01 </wgt>
<wgt id='1197'> +3.9410063E-01 </wgt>
<wgt id='1198'> +3.9583635E-01 </wgt>
<wgt id='1199'> +3.8895155E-01 </wgt>
<wgt id='1200'> +3.9617154E-01 </wgt>
<wgt id='1201'> +3.9784543E-01 </wgt>
<wgt id='1202'> +3.8962693E-01 </wgt>
<wgt id='1203'> +3.9772010E-01 </wgt>
<wgt id='1204'> +3.9052597E-01 </wgt>
<wgt id='1205'> +3.9802703E-01 </wgt>
<wgt id='1206'> +3.9892695E-01 </wgt>
<wgt id='1207'> +4.0284684E-01 </wgt>
<wgt id='1208'> +3.9321880E-01 </wgt>
<wgt id='1209'> +4.0011718E-01 </wgt>
<wgt id='1210'> +3.8556503E-01 </wgt>
<wgt id='1211'> +3.9198273E-01 </wgt>
<wgt id='1212'> +3.8179553E-01 </wgt>
<wgt id='1213'> +3.8737250E-01 </wgt>
<wgt id='1214'> +3.9408993E-01 </wgt>
<wgt id='1215'> +4.0190612E-01 </wgt>
<wgt id='1216'> +3.8794831E-01 </wgt>
<wgt id='1217'> +3.9138099E-01 </wgt>
<wgt id='1218'> +3.9052535E-01 </wgt>
<wgt id='1219'> +3.9194087E-01 </wgt>
<wgt id='1220'> +3.9692477E-01 </wgt>
<wgt id='1221'> +3.8623558E-01 </wgt>
<wgt id='1222'> +3.8647889E-01 </wgt>
<wgt id='1223'> +3.7512858E-01 </wgt>
<wgt id='1224'> +3.8999158E-01 </wgt>
<wgt id='1225'> +3.9187777E-01 </wgt>
<wgt id='1226'> +3.8259673E-01 </wgt>
<wgt id='1227'> +3.9940024E-01 </wgt>
<wgt id='1228'> +3.8736448E-01 </wgt>
<wgt id='1229'> +3.8753035E-01 </wgt>
<wgt id='1230'> +3.9389234E-01 </wgt>
<wgt id='1231'> +3.8897670E-01 </wgt>
<wgt id='1232'> +3.7179462E-01 </wgt>
<wgt id='1233'> +3.9062104E-01 </wgt>
<wgt id='1234'> +3.8447594E-01 </wgt>
<wgt id='1235'> +4.1293083E-01 </wgt>
<wgt id='1236'> +3.9155148E-01 </wgt>
<wgt id='1237'> +3.9380405E-01 </wgt>
<wgt id='1238'> +3.5802755E-01 </wgt>
<wgt id='1239'> +3.9911489E-01 </wgt>
<wgt id='1240'> +4.0344955E-01 </wgt>
<wgt id='1241'> +3.9050520E-01 </wgt>
<wgt id='1242'> +3.9263584E-01 </wgt>
<wgt id='1243'> +3.9916026E-01 </wgt>
<wgt id='1244'> +4.0088295E-01 </wgt>
<wgt id='1245'> +3.9853650E-01 </wgt>
<wgt id='1246'> +3.9075659E-01 </wgt>
<wgt id='1247'> +3.9049874E-01 </wgt>
<wgt id='1248'> +3.8214127E-01 </wgt>
<wgt id='1249'> +3.9846705E-01 </wgt>
<wgt id='1250'> +3.7928988E-01 </wgt>
<wgt id='1251'> +3.7614671E-01 </wgt>
<wgt id='1252'> +3.9359583E-01 </wgt>
<wgt id='1253'> +3.8865369E-01 </wgt>
<wgt id='1254'> +3.4375233E-01 </wgt>
<wgt id='1255'> +3.8200402E-01 </wgt>
<wgt id='1256'> +3.8142765E-01 </wgt>
<wgt id='1257'> +3.8235867E-01 </wgt>
<wgt id='1258'> +3.8337690E-01 </wgt>
<wgt id='1259'> +3.8132528E-01 </wgt>
<wgt id='1260'> +3.8239296E-01 </wgt>
<wgt id='1261'> +3.8150378E-01 </wgt>
<wgt id='1262'> +3.8234170E-01 </wgt>
<wgt id='1263'> +3.8179193E-01 </wgt>
<wgt id='1264'> +3.8407959E-01 </wgt>
<wgt id='1265'> +3.8056757E-01 </wgt>
<wgt id='1266'> +3.8233966E-01 </wgt>
<wgt id='1267'> +3.8167066E-01 </wgt>
<wgt id='1268'> +3.8430870E-01 </wgt>
<wgt id='1269'> +3.7971157E-01 </wgt>
<wgt id='1270'> +3.7886855E-01 </wgt>
<wgt id='1271'> +3.8523971E-01 </wgt>
<wgt id='1272'> +3.8468380E-01 </wgt>
<wgt id='1273'> +3.7966012E-01 </wgt>
<wgt id='1274'> +3.8193078E-01 </wgt>
<wgt id='1275'> +3.8192457E-01 </wgt>
<wgt id='1276'> +3.8276317E-01 </wgt>
<wgt id='1277'> +3.8088030E-01 </wgt>
<wgt id='1278'> +3.7756112E-01 </wgt>
<wgt id='1279'> +3.8536959E-01 </wgt>
<wgt id='1280'> +3.8230665E-01 </wgt>
<wgt id='1281'> +3.8013403E-01 </wgt>
<wgt id='1282'> +3.8237642E-01 </wgt>
<wgt id='1283'> +3.8022354E-01 </wgt>
<wgt id='1284'> +3.7908268E-01 </wgt>
<wgt id='1285'> +3.8307074E-01 </wgt>
<wgt id='1286'> +3.8252839E-01 </wgt>
<wgt id='1287'> +3.8192915E-01 </wgt>
<wgt id='1288'> +3.8226093E-01 </wgt>
<wgt id='1289'> +3.8191112E-01 </wgt>
<wgt id='1290'> +3.8300797E-01 </wgt>
<wgt id='1291'> +3.8165585E-01 </wgt>
<wgt id='1292'> +3.8429913E-01 </wgt>
<wgt id='1293'> +3.7897965E-01 </wgt>
<wgt id='1294'> +3.7956639E-01 </wgt>
<wgt id='1295'> +3.8231325E-01 </wgt>
<wgt id='1296'> +3.9579159E-01 </wgt>
<wgt id='1297'> +3.9681015E-01 </wgt>
<wgt id='1298'> +3.9495462E-01 </wgt>
<wgt id='1299'> +3.9695248E-01 </wgt>
<wgt id='1300'> +3.9449181E-01 </wgt>
<wgt id='1301'> +3.9530441E-01 </wgt>
<wgt id='1302'> +3.9649395E-01 </wgt>
<wgt id='1303'> +3.9783402E-01 </wgt>
<wgt id='1304'> +3.9440499E-01 </wgt>
<wgt id='1305'> +3.9601995E-01 </wgt>
<wgt id='1306'> +3.9547141E-01 </wgt>
<wgt id='1307'> +3.9689977E-01 </wgt>
<wgt id='1308'> +3.9512001E-01 </wgt>
<wgt id='1309'> +3.9463774E-01 </wgt>
<wgt id='1310'> +3.9731070E-01 </wgt>
<wgt id='1311'> +3.9689531E-01 </wgt>
<wgt id='1312'> +3.9540604E-01 </wgt>
<wgt id='1313'> +3.9414522E-01 </wgt>
<wgt id='1314'> +3.9770353E-01 </wgt>
<wgt id='1315'> +3.9361206E-01 </wgt>
<wgt id='1316'> +3.9754077E-01 </wgt>
<wgt id='1317'> +3.9545470E-01 </wgt>
<wgt id='1318'> +3.9638680E-01 </wgt>
<wgt id='1319'> +3.9548281E-01 </wgt>
<wgt id='1320'> +3.9570127E-01 </wgt>
<wgt id='1321'> +3.9247607E-01 </wgt>
<wgt id='1322'> +3.9730609E-01 </wgt>
<wgt id='1323'> +3.9409778E-01 </wgt>
<wgt id='1324'> +3.9328421E-01 </wgt>
<wgt id='1325'> +3.9549338E-01 </wgt>
<wgt id='1326'> +3.9511773E-01 </wgt>
<wgt id='1327'> +3.9478708E-01 </wgt>
<wgt id='1328'> +3.9620527E-01 </wgt>
<wgt id='1329'> +3.9517507E-01 </wgt>
<wgt id='1330'> +3.9620758E-01 </wgt>
<wgt id='1331'> +3.9623546E-01 </wgt>
<wgt id='1332'> +3.9521140E-01 </wgt>
<wgt id='1333'> +3.9983073E-01 </wgt>
<wgt id='1334'> +3.9224228E-01 </wgt>
<wgt id='1335'> +3.9758676E-01 </wgt>
<wgt id='1336'> +3.9514809E-01 </wgt>
<wgt id='1337'> +3.9579159E-01 </wgt>
<wgt id='1338'> +3.9565787E-01 </wgt>
<wgt id='1339'> +3.9572604E-01 </wgt>
<wgt id='1340'> +3.9574728E-01 </wgt>
<wgt id='1341'> +3.9579167E-01 </wgt>
<wgt id='1342'> +3.9581824E-01 </wgt>
<wgt id='1343'> +3.9578997E-01 </wgt>
<wgt id='1344'> +3.9825262E-01 </wgt>
<wgt id='1345'> +3.9939333E-01 </wgt>
<wgt id='1346'> +3.9711197E-01 </wgt>
<wgt id='1347'> +3.9732351E-01 </wgt>
<wgt id='1348'> +3.9891425E-01 </wgt>
<wgt id='1349'> +3.9964664E-01 </wgt>
<wgt id='1350'> +3.9705751E-01 </wgt>
<wgt id='1351'> +3.9822303E-01 </wgt>
<wgt id='1352'> +3.9828149E-01 </wgt>
<wgt id='1353'> +3.9958037E-01 </wgt>
<wgt id='1354'> +3.9729113E-01 </wgt>
<wgt id='1355'> +3.9947456E-01 </wgt>
<wgt id='1356'> +3.9726202E-01 </wgt>
<wgt id='1357'> +3.9928114E-01 </wgt>
<wgt id='1358'> +3.9763509E-01 </wgt>
<wgt id='1359'> +3.9769099E-01 </wgt>
<wgt id='1360'> +3.9970969E-01 </wgt>
<wgt id='1361'> +3.9584673E-01 </wgt>
<wgt id='1362'> +4.0055658E-01 </wgt>
<wgt id='1363'> +3.9947408E-01 </wgt>
<wgt id='1364'> +3.9639148E-01 </wgt>
<wgt id='1365'> +3.9790948E-01 </wgt>
<wgt id='1366'> +3.9821312E-01 </wgt>
<wgt id='1367'> +3.9522175E-01 </wgt>
<wgt id='1368'> +3.9957639E-01 </wgt>
<wgt id='1369'> +3.9731620E-01 </wgt>
<wgt id='1370'> +3.9856765E-01 </wgt>
<wgt id='1371'> +3.9606882E-01 </wgt>
<wgt id='1372'> +3.9868080E-01 </wgt>
<wgt id='1373'> +4.0058918E-01 </wgt>
<wgt id='1374'> +3.9769488E-01 </wgt>
<wgt id='1375'> +3.9776622E-01 </wgt>
<wgt id='1376'> +3.9833607E-01 </wgt>
<wgt id='1377'> +3.9845712E-01 </wgt>
<wgt id='1378'> +3.9814226E-01 </wgt>
<wgt id='1379'> +3.9760205E-01 </wgt>
<wgt id='1380'> +3.9841266E-01 </wgt>
<wgt id='1381'> +3.9529573E-01 </wgt>
<wgt id='1382'> +3.9988003E-01 </wgt>
<wgt id='1383'> +3.9765831E-01 </wgt>
<wgt id='1384'> +3.9995810E-01 </wgt>
<wgt id='1385'> +3.9825262E-01 </wgt>
<wgt id='1386'> +3.9810433E-01 </wgt>
<wgt id='1387'> +3.9818301E-01 </wgt>
<wgt id='1388'> +3.9821759E-01 </wgt>
<wgt id='1389'> +3.9821537E-01 </wgt>
<wgt id='1390'> +3.9818834E-01 </wgt>
<wgt id='1391'> +3.9813421E-01 </wgt>
<wgt id='1392'> +4.0035463E-01 </wgt>
<wgt id='1393'> +3.9976066E-01 </wgt>
<wgt id='1394'> +4.0100648E-01 </wgt>
<wgt id='1395'> +4.0079185E-01 </wgt>
<wgt id='1396'> +4.0004713E-01 </wgt>
<wgt id='1397'> +4.0097817E-01 </wgt>
<wgt id='1398'> +3.9976076E-01 </wgt>
<wgt id='1399'> +3.9943028E-01 </wgt>
<wgt id='1400'> +4.0149229E-01 </wgt>
<wgt id='1401'> +3.9968346E-01 </wgt>
<wgt id='1402'> +4.0121673E-01 </wgt>
<wgt id='1403'> +3.9981780E-01 </wgt>
<wgt id='1404'> +4.0142220E-01 </wgt>
<wgt id='1405'> +4.0146397E-01 </wgt>
<wgt id='1406'> +3.9882104E-01 </wgt>
<wgt id='1407'> +3.9912837E-01 </wgt>
<wgt id='1408'> +4.0121532E-01 </wgt>
<wgt id='1409'> +4.0030135E-01 </wgt>
<wgt id='1410'> +4.0042228E-01 </wgt>
<wgt id='1411'> +3.9795814E-01 </wgt>
<wgt id='1412'> +4.0220241E-01 </wgt>
<wgt id='1413'> +4.0340603E-01 </wgt>
<wgt id='1414'> +3.9706954E-01 </wgt>
<wgt id='1415'> +4.0190216E-01 </wgt>
<wgt id='1416'> +3.9882155E-01 </wgt>
<wgt id='1417'> +3.9857506E-01 </wgt>
<wgt id='1418'> +4.0256057E-01 </wgt>
<wgt id='1419'> +3.9780495E-01 </wgt>
<wgt id='1420'> +4.0182023E-01 </wgt>
<wgt id='1421'> +4.0022720E-01 </wgt>
<wgt id='1422'> +4.0047863E-01 </wgt>
<wgt id='1423'> +4.0191811E-01 </wgt>
<wgt id='1424'> +3.9917519E-01 </wgt>
<wgt id='1425'> +4.0127927E-01 </wgt>
<wgt id='1426'> +3.9880102E-01 </wgt>
<wgt id='1427'> +4.0110873E-01 </wgt>
<wgt id='1428'> +3.9827951E-01 </wgt>
<wgt id='1429'> +3.9968269E-01 </wgt>
<wgt id='1430'> +3.9992087E-01 </wgt>
<wgt id='1431'> +3.9888459E-01 </wgt>
<wgt id='1432'> +4.0170609E-01 </wgt>
<wgt id='1433'> +3.9322525E-01 </wgt>
<wgt id='1434'> +4.0962170E-01 </wgt>
<wgt id='1435'> +3.9912591E-01 </wgt>
<wgt id='1436'> +4.0013553E-01 </wgt>
<wgt id='1437'> +3.9890959E-01 </wgt>
<wgt id='1438'> +4.0433603E-01 </wgt>
<wgt id='1439'> +4.0294656E-01 </wgt>
<wgt id='1440'> +3.9677659E-01 </wgt>
<wgt id='1441'> +4.0124328E-01 </wgt>
<wgt id='1442'> +3.9985377E-01 </wgt>
<wgt id='1443'> +3.9687292E-01 </wgt>
<wgt id='1444'> +3.9626181E-01 </wgt>
<wgt id='1445'> +3.9752699E-01 </wgt>
<wgt id='1446'> +3.9731279E-01 </wgt>
<wgt id='1447'> +3.9655681E-01 </wgt>
<wgt id='1448'> +3.9751792E-01 </wgt>
<wgt id='1449'> +3.9626741E-01 </wgt>
<wgt id='1450'> +3.9590611E-01 </wgt>
<wgt id='1451'> +3.9794391E-01 </wgt>
<wgt id='1452'> +3.9627715E-01 </wgt>
<wgt id='1453'> +3.9745779E-01 </wgt>
<wgt id='1454'> +3.9638035E-01 </wgt>
<wgt id='1455'> +3.9794406E-01 </wgt>
<wgt id='1456'> +3.9811780E-01 </wgt>
<wgt id='1457'> +3.9461955E-01 </wgt>
<wgt id='1458'> +3.9527997E-01 </wgt>
<wgt id='1459'> +3.9774336E-01 </wgt>
<wgt id='1460'> +3.9619722E-01 </wgt>
<wgt id='1461'> +3.9765678E-01 </wgt>
<wgt id='1462'> +3.9470528E-01 </wgt>
<wgt id='1463'> +3.9872837E-01 </wgt>
<wgt id='1464'> +3.9946331E-01 </wgt>
<wgt id='1465'> +3.9339893E-01 </wgt>
<wgt id='1466'> +3.9885443E-01 </wgt>
<wgt id='1467'> +3.9554212E-01 </wgt>
<wgt id='1468'> +3.9853688E-01 </wgt>
<wgt id='1469'> +3.9525023E-01 </wgt>
<wgt id='1470'> +3.9453468E-01 </wgt>
<wgt id='1471'> +3.9803429E-01 </wgt>
<wgt id='1472'> +3.9653759E-01 </wgt>
<wgt id='1473'> +3.9716265E-01 </wgt>
<wgt id='1474'> +3.9834301E-01 </wgt>
<wgt id='1475'> +3.9504883E-01 </wgt>
<wgt id='1476'> +3.9792607E-01 </wgt>
<wgt id='1477'> +3.9547188E-01 </wgt>
<wgt id='1478'> +3.9762567E-01 </wgt>
<wgt id='1479'> +3.9467676E-01 </wgt>
<wgt id='1480'> +3.9670602E-01 </wgt>
<wgt id='1481'> +3.9651930E-01 </wgt>
<wgt id='1482'> +3.9535197E-01 </wgt>
<wgt id='1483'> +3.9845394E-01 </wgt>
<wgt id='1484'> +3.8967048E-01 </wgt>
<wgt id='1485'> +4.0569131E-01 </wgt>
<wgt id='1486'> +3.9725963E-01 </wgt>
<wgt id='1487'> +3.9604898E-01 </wgt>
<wgt id='1488'> +3.9513423E-01 </wgt>
<wgt id='1489'> +4.0133402E-01 </wgt>
<wgt id='1490'> +3.9987909E-01 </wgt>
<wgt id='1491'> +3.9319552E-01 </wgt>
<wgt id='1492'> +3.9812037E-01 </wgt>
<wgt id='1493'> +3.9615889E-01 </wgt>
<wgt id='1494'> +3.8341897E-01 </wgt>
<wgt id='1495'> +3.7853278E-01 </wgt>
<wgt id='1496'> +3.8042253E-01 </wgt>
<wgt id='1497'> +3.8200595E-01 </wgt>
<wgt id='1498'> +3.8535836E-01 </wgt>
<wgt id='1499'> +3.8361103E-01 </wgt>
<wgt id='1500'> +3.8197083E-01 </wgt>
<wgt id='1501'> +3.8253650E-01 </wgt>
<wgt id='1502'> +3.8291586E-01 </wgt>
<wgt id='1503'> +3.8320517E-01 </wgt>
<wgt id='1504'> +3.8347900E-01 </wgt>
<wgt id='1505'> +3.8380898E-01 </wgt>
<wgt id='1506'> +3.8387304E-01 </wgt>
<wgt id='1507'> +3.8389251E-01 </wgt>
<wgt id='1508'> +3.8361103E-01 </wgt>
<wgt id='1509'> +3.8388401E-01 </wgt>
<wgt id='1510'> +3.8375231E-01 </wgt>
<wgt id='1511'> +3.8349512E-01 </wgt>
<wgt id='1512'> +3.8354548E-01 </wgt>
<wgt id='1513'> +3.9099440E-01 </wgt>
<wgt id='1514'> +3.9030270E-01 </wgt>
<wgt id='1515'> +3.9190071E-01 </wgt>
<wgt id='1516'> +3.9098341E-01 </wgt>
<wgt id='1517'> +3.9100357E-01 </wgt>
<wgt id='1518'> +3.9193213E-01 </wgt>
<wgt id='1519'> +3.9062155E-01 </wgt>
<wgt id='1520'> +3.9032782E-01 </wgt>
<wgt id='1521'> +3.9166558E-01 </wgt>
<wgt id='1522'> +3.9083724E-01 </wgt>
<wgt id='1523'> +3.9116273E-01 </wgt>
<wgt id='1524'> +3.9215185E-01 </wgt>
<wgt id='1525'> +3.9050505E-01 </wgt>
<wgt id='1526'> +3.9212146E-01 </wgt>
<wgt id='1527'> +3.8961428E-01 </wgt>
<wgt id='1528'> +3.9152201E-01 </wgt>
<wgt id='1529'> +3.9042318E-01 </wgt>
<wgt id='1530'> +3.9109409E-01 </wgt>
<wgt id='1531'> +3.9092699E-01 </wgt>
<wgt id='1532'> +3.9191276E-01 </wgt>
<wgt id='1533'> +3.8977680E-01 </wgt>
<wgt id='1534'> +3.8709693E-01 </wgt>
<wgt id='1535'> +3.9367431E-01 </wgt>
<wgt id='1536'> +3.8971391E-01 </wgt>
<wgt id='1537'> +3.9220520E-01 </wgt>
<wgt id='1538'> +3.9068371E-01 </wgt>
<wgt id='1539'> +3.9175322E-01 </wgt>
<wgt id='1540'> +3.8880267E-01 </wgt>
<wgt id='1541'> +3.9236596E-01 </wgt>
<wgt id='1542'> +3.9087783E-01 </wgt>
<wgt id='1543'> +3.9163082E-01 </wgt>
<wgt id='1544'> +3.9127824E-01 </wgt>
<wgt id='1545'> +3.9033178E-01 </wgt>
<wgt id='1546'> +3.9025125E-01 </wgt>
<wgt id='1547'> +3.9175254E-01 </wgt>
<wgt id='1548'> +3.8890108E-01 </wgt>
<wgt id='1549'> +3.9163770E-01 </wgt>
<wgt id='1550'> +3.9177275E-01 </wgt>
<wgt id='1551'> +3.8783945E-01 </wgt>
<wgt id='1552'> +3.8928576E-01 </wgt>
<wgt id='1553'> +3.9218738E-01 </wgt>
<wgt id='1554'> +3.9595543E-01 </wgt>
<wgt id='1555'> +3.8318657E-01 </wgt>
<wgt id='1556'> +3.9132760E-01 </wgt>
<wgt id='1557'> +3.8959521E-01 </wgt>
<wgt id='1558'> +3.8708009E-01 </wgt>
<wgt id='1559'> +3.9425160E-01 </wgt>
<wgt id='1560'> +3.9466952E-01 </wgt>
<wgt id='1561'> +3.8937394E-01 </wgt>
<wgt id='1562'> +3.8896062E-01 </wgt>
<wgt id='1563'> +3.9214732E-01 </wgt>
<wgt id='1564'> +3.9099440E-01 </wgt>
<wgt id='1565'> +3.8879471E-01 </wgt>
<wgt id='1566'> +3.9279364E-01 </wgt>
<wgt id='1567'> +3.9048920E-01 </wgt>
<wgt id='1568'> +3.9014997E-01 </wgt>
<wgt id='1569'> +3.9053387E-01 </wgt>
<wgt id='1570'> +3.9060239E-01 </wgt>
<wgt id='1571'> +3.9041038E-01 </wgt>
<wgt id='1572'> +3.9061767E-01 </wgt>
<wgt id='1573'> +3.9017193E-01 </wgt>
<wgt id='1574'> +3.8951786E-01 </wgt>
<wgt id='1575'> +3.8928871E-01 </wgt>
<wgt id='1576'> +3.9048920E-01 </wgt>
<wgt id='1577'> +3.9060447E-01 </wgt>
<wgt id='1578'> +3.9047728E-01 </wgt>
<wgt id='1579'> +3.9048221E-01 </wgt>
<wgt id='1580'> +3.9048657E-01 </wgt>
<wgt id='1581'> +3.8746056E-01 </wgt>
<wgt id='1582'> +3.8829524E-01 </wgt>
<wgt id='1583'> +3.9207751E-01 </wgt>
<wgt id='1584'> +3.8532379E-01 </wgt>
<wgt id='1585'> +3.8872678E-01 </wgt>
<wgt id='1586'> +3.8053256E-01 </wgt>
<wgt id='1587'> +3.8558819E-01 </wgt>
<wgt id='1588'> +3.8999508E-01 </wgt>
<wgt id='1589'> +3.8705689E-01 </wgt>
<wgt id='1590'> +3.8829325E-01 </wgt>
<wgt id='1591'> +3.8671322E-01 </wgt>
<wgt id='1592'> +3.8447437E-01 </wgt>
<wgt id='1593'> +3.8763001E-01 </wgt>
<wgt id='1594'> +3.8745783E-01 </wgt>
<wgt id='1595'> +3.8712125E-01 </wgt>
<wgt id='1596'> +3.8889302E-01 </wgt>
<wgt id='1597'> +3.8704112E-01 </wgt>
<wgt id='1598'> +3.8859766E-01 </wgt>
<wgt id='1599'> +3.8869276E-01 </wgt>
<wgt id='1600'> +3.8891341E-01 </wgt>
<wgt id='1601'> +3.8743187E-01 </wgt>
<wgt id='1602'> +3.8841043E-01 </wgt>
<wgt id='1603'> +3.8784000E-01 </wgt>
<wgt id='1604'> +3.8786962E-01 </wgt>
<wgt id='1605'> +3.8695149E-01 </wgt>
<wgt id='1606'> +3.8731387E-01 </wgt>
<wgt id='1607'> +3.8784025E-01 </wgt>
<wgt id='1608'> +3.9102951E-01 </wgt>
<wgt id='1609'> +3.8764819E-01 </wgt>
<wgt id='1610'> +3.8716096E-01 </wgt>
<wgt id='1611'> +3.8961866E-01 </wgt>
<wgt id='1612'> +3.9151522E-01 </wgt>
<wgt id='1613'> +3.9155925E-01 </wgt>
<wgt id='1614'> +3.9141317E-01 </wgt>
<wgt id='1615'> +3.9144901E-01 </wgt>
<wgt id='1616'> +3.9156389E-01 </wgt>
<wgt id='1617'> +3.9148728E-01 </wgt>
<wgt id='1618'> +3.9151504E-01 </wgt>
<wgt id='1619'> +3.9077845E-01 </wgt>
<wgt id='1620'> +3.9051179E-01 </wgt>
<wgt id='1621'> +3.9188026E-01 </wgt>
<wgt id='1622'> +3.9141663E-01 </wgt>
<wgt id='1623'> +3.8927619E-01 </wgt>
<wgt id='1624'> +3.9029581E-01 </wgt>
<wgt id='1625'> +3.8982871E-01 </wgt>
<wgt id='1626'> +3.9137467E-01 </wgt>
<wgt id='1627'> +3.9196226E-01 </wgt>
<wgt id='1628'> +3.9269721E-01 </wgt>
<wgt id='1629'> +3.9105504E-01 </wgt>
<wgt id='1630'> +3.9058557E-01 </wgt>
<wgt id='1631'> +3.9080753E-01 </wgt>
<wgt id='1632'> +3.9083408E-01 </wgt>
<wgt id='1633'> +3.9221150E-01 </wgt>
<wgt id='1634'> +3.9217727E-01 </wgt>
<wgt id='1635'> +3.8989440E-01 </wgt>
<wgt id='1636'> +3.9317879E-01 </wgt>
<wgt id='1637'> +3.9157514E-01 </wgt>
<wgt id='1638'> +3.9126568E-01 </wgt>
<wgt id='1639'> +3.9292099E-01 </wgt>
<wgt id='1640'> +3.9192654E-01 </wgt>
<wgt id='1641'> +3.8831554E-01 </wgt>
<wgt id='1642'> +3.9195558E-01 </wgt>
<wgt id='1643'> +3.9158845E-01 </wgt>
<wgt id='1644'> +3.9065978E-01 </wgt>
<wgt id='1645'> +3.9021058E-01 </wgt>
<wgt id='1646'> +3.9245117E-01 </wgt>
<wgt id='1647'> +3.9226394E-01 </wgt>
<wgt id='1648'> +3.9141622E-01 </wgt>
<wgt id='1649'> +3.9328911E-01 </wgt>
<wgt id='1650'> +3.9095037E-01 </wgt>
<wgt id='1651'> +3.9111985E-01 </wgt>
<wgt id='1652'> +3.9121692E-01 </wgt>
<wgt id='1653'> +3.9113509E-01 </wgt>
<wgt id='1654'> +3.9102209E-01 </wgt>
<wgt id='1655'> +3.9093498E-01 </wgt>
<wgt id='1656'> +3.9261302E-01 </wgt>
<wgt id='1657'> +3.9012575E-01 </wgt>
<wgt id='1658'> +3.9253412E-01 </wgt>
<wgt id='1659'> +3.9312830E-01 </wgt>
<wgt id='1660'> +3.9068072E-01 </wgt>
<wgt id='1661'> +3.9239413E-01 </wgt>
<wgt id='1662'> +3.9148760E-01 </wgt>
<wgt id='1663'> +3.9187176E-01 </wgt>
<wgt id='1664'> +3.9138297E-01 </wgt>
<wgt id='1665'> +3.9113407E-01 </wgt>
<wgt id='1666'> +3.9143874E-01 </wgt>
<wgt id='1667'> +3.9037259E-01 </wgt>
<wgt id='1668'> +3.9234247E-01 </wgt>
<wgt id='1669'> +3.9153931E-01 </wgt>
<wgt id='1670'> +3.9152323E-01 </wgt>
<wgt id='1671'> +3.9188005E-01 </wgt>
<wgt id='1672'> +3.9188174E-01 </wgt>
<wgt id='1673'> +3.9090770E-01 </wgt>
<wgt id='1674'> +3.9223012E-01 </wgt>
<wgt id='1675'> +3.9150939E-01 </wgt>
<wgt id='1676'> +3.9081988E-01 </wgt>
<wgt id='1677'> +3.9224104E-01 </wgt>
<wgt id='1678'> +3.9116116E-01 </wgt>
<wgt id='1679'> +3.9182343E-01 </wgt>
<wgt id='1680'> +3.9189456E-01 </wgt>
<wgt id='1681'> +3.9124890E-01 </wgt>
<wgt id='1682'> +3.9109457E-01 </wgt>
<wgt id='1683'> +3.9097820E-01 </wgt>
<wgt id='1684'> +3.9215255E-01 </wgt>
<wgt id='1685'> +3.9094721E-01 </wgt>
<wgt id='1686'> +3.9175163E-01 </wgt>
<wgt id='1687'> +3.9125063E-01 </wgt>
<wgt id='1688'> +3.9115412E-01 </wgt>
<wgt id='1689'> +3.9140732E-01 </wgt>
<wgt id='1690'> +3.9127694E-01 </wgt>
<wgt id='1691'> +3.9140951E-01 </wgt>
<wgt id='1692'> +3.9201933E-01 </wgt>
<wgt id='1693'> +3.9149618E-01 </wgt>
<wgt id='1694'> +3.9167717E-01 </wgt>
<wgt id='1695'> +3.9123979E-01 </wgt>
<wgt id='1696'> +3.9121621E-01 </wgt>
<wgt id='1697'> +3.9161952E-01 </wgt>
<wgt id='1698'> +3.9142321E-01 </wgt>
<wgt id='1699'> +3.9149080E-01 </wgt>
<wgt id='1700'> +3.9133865E-01 </wgt>
<wgt id='1701'> +3.9136486E-01 </wgt>
<wgt id='1702'> +3.9174933E-01 </wgt>
<wgt id='1703'> +3.9174339E-01 </wgt>
<wgt id='1704'> +3.9116785E-01 </wgt>
<wgt id='1705'> +3.9131289E-01 </wgt>
<wgt id='1706'> +3.9138189E-01 </wgt>
<wgt id='1707'> +3.9157883E-01 </wgt>
<wgt id='1708'> +3.9146741E-01 </wgt>
<wgt id='1709'> +3.9199975E-01 </wgt>
<wgt id='1710'> +3.9142082E-01 </wgt>
<wgt id='1711'> +3.9130363E-01 </wgt>
<wgt id='1712'> +3.9163204E-01 </wgt>
<wgt id='1713'> +3.8423018E-01 </wgt>
<wgt id='1714'> +3.9794247E-01 </wgt>
<wgt id='1715'> +3.9799023E-01 </wgt>
<wgt id='1716'> +3.9636138E-01 </wgt>
<wgt id='1717'> +4.0766606E-01 </wgt>
<wgt id='1718'> +3.9009980E-01 </wgt>
<wgt id='1719'> +3.9045429E-01 </wgt>
<wgt id='1720'> +4.0976235E-01 </wgt>
<wgt id='1721'> +4.0424530E-01 </wgt>
<wgt id='1722'> +3.8995247E-01 </wgt>
<wgt id='1723'> +4.0735264E-01 </wgt>
<wgt id='1724'> +3.9366511E-01 </wgt>
<wgt id='1725'> +3.9357861E-01 </wgt>
<wgt id='1726'> +3.9537803E-01 </wgt>
<wgt id='1727'> +4.0109019E-01 </wgt>
<wgt id='1728'> +4.0080646E-01 </wgt>
<wgt id='1729'> +3.9510537E-01 </wgt>
<wgt id='1730'> +3.9734566E-01 </wgt>
<wgt id='1731'> +3.8176721E-01 </wgt>
<wgt id='1732'> +3.8791292E-01 </wgt>
<wgt id='1733'> +3.9633512E-01 </wgt>
<wgt id='1734'> +4.1131751E-01 </wgt>
<wgt id='1735'> +3.7170599E-01 </wgt>
<wgt id='1736'> +4.0818773E-01 </wgt>
<wgt id='1737'> +3.9085785E-01 </wgt>
<wgt id='1738'> +4.0175541E-01 </wgt>
<wgt id='1739'> +4.0703629E-01 </wgt>
<wgt id='1740'> +4.0250508E-01 </wgt>
<wgt id='1741'> +3.9252794E-01 </wgt>
<wgt id='1742'> +4.0313184E-01 </wgt>
<wgt id='1743'> +3.8495100E-01 </wgt>
<wgt id='1744'> +3.9467772E-01 </wgt>
<wgt id='1745'> +3.8529072E-01 </wgt>
<wgt id='1746'> +3.9596650E-01 </wgt>
<wgt id='1747'> +4.0526351E-01 </wgt>
<wgt id='1748'> +3.8740056E-01 </wgt>
<wgt id='1749'> +4.0130255E-01 </wgt>
<wgt id='1750'> +3.9034006E-01 </wgt>
<wgt id='1751'> +4.0046110E-01 </wgt>
<wgt id='1752'> +4.0158457E-01 </wgt>
<wgt id='1753'> +3.9171952E-01 </wgt>
<wgt id='1754'> +4.0152503E-01 </wgt>
<wgt id='1755'> +3.9509509E-01 </wgt>
<wgt id='1756'> +4.0705532E-01 </wgt>
<wgt id='1757'> +4.0040616E-01 </wgt>
<wgt id='1758'> +4.0632348E-01 </wgt>
<wgt id='1759'> +4.0064393E-01 </wgt>
<wgt id='1760'> +3.9747495E-01 </wgt>
<wgt id='1761'> +3.9411016E-01 </wgt>
<wgt id='1762'> +4.0109019E-01 </wgt>
<wgt id='1763'> +3.9834758E-01 </wgt>
<wgt id='1764'> +4.0357654E-01 </wgt>
<wgt id='1765'> +4.0347387E-01 </wgt>
<wgt id='1766'> +3.9684038E-01 </wgt>
<wgt id='1767'> +3.8896095E-01 </wgt>
<wgt id='1768'> +3.9458116E-01 </wgt>
<wgt id='1769'> +4.0405869E-01 </wgt>
<wgt id='1770'> +3.9980130E-01 </wgt>
<wgt id='1771'> +3.8741726E-01 </wgt>
<wgt id='1772'> +3.9926298E-01 </wgt>
<wgt id='1773'> +3.9773125E-01 </wgt>
<wgt id='1774'> +3.9278488E-01 </wgt>
<wgt id='1775'> +3.9346276E-01 </wgt>
<wgt id='1776'> +4.0732440E-01 </wgt>
<wgt id='1777'> +4.0696367E-01 </wgt>
<wgt id='1778'> +3.9395388E-01 </wgt>
<wgt id='1779'> +4.0193839E-01 </wgt>
<wgt id='1780'> +4.0231900E-01 </wgt>
<wgt id='1781'> +4.0382737E-01 </wgt>
<wgt id='1782'> +4.0189074E-01 </wgt>
<wgt id='1783'> +4.0150147E-01 </wgt>
<wgt id='1784'> +3.9706844E-01 </wgt>
<wgt id='1785'> +3.9426766E-01 </wgt>
<wgt id='1786'> +4.0379178E-01 </wgt>
<wgt id='1787'> +3.9736914E-01 </wgt>
<wgt id='1788'> +4.0035055E-01 </wgt>
<wgt id='1789'> +3.9743083E-01 </wgt>
<wgt id='1790'> +3.9823718E-01 </wgt>
<wgt id='1791'> +3.8689932E-01 </wgt>
<wgt id='1792'> +4.0438616E-01 </wgt>
<wgt id='1793'> +3.9687881E-01 </wgt>
<wgt id='1794'> +3.9881691E-01 </wgt>
<wgt id='1795'> +3.7523813E-01 </wgt>
<wgt id='1796'> +3.9317257E-01 </wgt>
<wgt id='1797'> +4.0142083E-01 </wgt>
<wgt id='1798'> +3.8624294E-01 </wgt>
<wgt id='1799'> +4.0289526E-01 </wgt>
<wgt id='1800'> +4.1109224E-01 </wgt>
<wgt id='1801'> +3.9596489E-01 </wgt>
<wgt id='1802'> +4.0913540E-01 </wgt>
<wgt id='1803'> +4.0133298E-01 </wgt>
<wgt id='1804'> +4.0603690E-01 </wgt>
<wgt id='1805'> +4.0512415E-01 </wgt>
<wgt id='1806'> +3.9340050E-01 </wgt>
<wgt id='1807'> +3.9617658E-01 </wgt>
<wgt id='1808'> +3.8513185E-01 </wgt>
<wgt id='1809'> +4.0596961E-01 </wgt>
<wgt id='1810'> +3.9406976E-01 </wgt>
<wgt id='1811'> +4.0847733E-01 </wgt>
<wgt id='1812'> +3.9640745E-01 </wgt>
<wgt id='1813'> +4.0347381E-01 </wgt>
<wgt id='1814'> +3.9435144E-01 </wgt>
<wgt id='1815'> +4.0599096E-01 </wgt>
<wgt id='1816'> +3.9452828E-01 </wgt>
<wgt id='1817'> +4.0905853E-01 </wgt>
<wgt id='1818'> +3.9594635E-01 </wgt>
<wgt id='1819'> +3.9558676E-01 </wgt>
<wgt id='1820'> +4.0141932E-01 </wgt>
<wgt id='1821'> +3.9593596E-01 </wgt>
<wgt id='1822'> +4.0192523E-01 </wgt>
<wgt id='1823'> +4.0027980E-01 </wgt>
<wgt id='1824'> +3.9438396E-01 </wgt>
<wgt id='1825'> +3.9556277E-01 </wgt>
<wgt id='1826'> +3.9587888E-01 </wgt>
<wgt id='1827'> +3.9223064E-01 </wgt>
<wgt id='1828'> +3.9012222E-01 </wgt>
<wgt id='1829'> +3.9979260E-01 </wgt>
<wgt id='1830'> +3.8741513E-01 </wgt>
<wgt id='1831'> +4.0189761E-01 </wgt>
<wgt id='1832'> +3.8714887E-01 </wgt>
<wgt id='1833'> +3.8778818E-01 </wgt>
<wgt id='1834'> +3.7721734E-01 </wgt>
<wgt id='1835'> +4.0045335E-01 </wgt>
<wgt id='1836'> +4.0741822E-01 </wgt>
<wgt id='1837'> +4.0987395E-01 </wgt>
<wgt id='1838'> +3.9907427E-01 </wgt>
<wgt id='1839'> +4.0472291E-01 </wgt>
<wgt id='1840'> +3.9127341E-01 </wgt>
<wgt id='1841'> +3.8563439E-01 </wgt>
<wgt id='1842'> +3.9664190E-01 </wgt>
<wgt id='1843'> +3.8328275E-01 </wgt>
<wgt id='1844'> +3.8863220E-01 </wgt>
<wgt id='1845'> +4.0184794E-01 </wgt>
<wgt id='1846'> +3.9736537E-01 </wgt>
<wgt id='1847'> +3.8833143E-01 </wgt>
<wgt id='1848'> +4.0088145E-01 </wgt>
<wgt id='1849'> +3.9531744E-01 </wgt>
<wgt id='1850'> +3.8921557E-01 </wgt>
<wgt id='1851'> +3.8952146E-01 </wgt>
<wgt id='1852'> +3.8008694E-01 </wgt>
<wgt id='1853'> +3.8761597E-01 </wgt>
<wgt id='1854'> +3.9852227E-01 </wgt>
<wgt id='1855'> +3.9689369E-01 </wgt>
<wgt id='1856'> +3.9032601E-01 </wgt>
<wgt id='1857'> +4.1252349E-01 </wgt>
<wgt id='1858'> +3.9491174E-01 </wgt>
<wgt id='1859'> +3.9286329E-01 </wgt>
<wgt id='1860'> +3.9509966E-01 </wgt>
<wgt id='1861'> +3.9778139E-01 </wgt>
<wgt id='1862'> +3.9728890E-01 </wgt>
<wgt id='1863'> +3.9422939E-01 </wgt>
<wgt id='1864'> +3.9665236E-01 </wgt>
<wgt id='1865'> +3.8514999E-01 </wgt>
<wgt id='1866'> +3.9473159E-01 </wgt>
<wgt id='1867'> +3.9788697E-01 </wgt>
<wgt id='1868'> +3.9536780E-01 </wgt>
<wgt id='1869'> +3.8885659E-01 </wgt>
<wgt id='1870'> +4.0193114E-01 </wgt>
<wgt id='1871'> +3.9300205E-01 </wgt>
<wgt id='1872'> +3.8668396E-01 </wgt>
<wgt id='1873'> +3.8717420E-01 </wgt>
<wgt id='1874'> +3.9521665E-01 </wgt>
<wgt id='1875'> +3.9133660E-01 </wgt>
<wgt id='1876'> +4.0064256E-01 </wgt>
<wgt id='1877'> +3.9456388E-01 </wgt>
<wgt id='1878'> +3.9716117E-01 </wgt>
<wgt id='1879'> +3.7871618E-01 </wgt>
<wgt id='1880'> +3.7449636E-01 </wgt>
<wgt id='1881'> +3.8534904E-01 </wgt>
<wgt id='1882'> +3.8585222E-01 </wgt>
<wgt id='1883'> +4.3753800E-01 </wgt>
<wgt id='1884'> +3.9294307E-01 </wgt>
<wgt id='1885'> +3.8371067E-01 </wgt>
<wgt id='1886'> +3.8920487E-01 </wgt>
<wgt id='1887'> +3.9426677E-01 </wgt>
<wgt id='1888'> +3.9366883E-01 </wgt>
<wgt id='1889'> +4.0803682E-01 </wgt>
<wgt id='1890'> +3.9517534E-01 </wgt>
<wgt id='1891'> +3.9679372E-01 </wgt>
<wgt id='1892'> +3.9466186E-01 </wgt>
<wgt id='1893'> +3.9091980E-01 </wgt>
<wgt id='1894'> +4.0108091E-01 </wgt>
<wgt id='1895'> +4.0062492E-01 </wgt>
<wgt id='1896'> +3.9191689E-01 </wgt>
<wgt id='1897'> +3.9459233E-01 </wgt>
<wgt id='1898'> +3.9360027E-01 </wgt>
<wgt id='1899'> +4.0385117E-01 </wgt>
<wgt id='1900'> +3.9024951E-01 </wgt>
<wgt id='1901'> +3.9902762E-01 </wgt>
<wgt id='1902'> +3.9002585E-01 </wgt>
<wgt id='1903'> +4.0239038E-01 </wgt>
<wgt id='1904'> +4.0075222E-01 </wgt>
<wgt id='1905'> +3.9743394E-01 </wgt>
<wgt id='1906'> +3.9058372E-01 </wgt>
<wgt id='1907'> +3.9634024E-01 </wgt>
<wgt id='1908'> +3.9238606E-01 </wgt>
<wgt id='1909'> +3.9275628E-01 </wgt>
<wgt id='1910'> +4.0197041E-01 </wgt>
<wgt id='1911'> +3.7778229E-01 </wgt>
<wgt id='1912'> +3.9307179E-01 </wgt>
<wgt id='1913'> +3.8508481E-01 </wgt>
<wgt id='1914'> +3.9166770E-01 </wgt>
<wgt id='1915'> +3.9520388E-01 </wgt>
<wgt id='1916'> +3.8283277E-01 </wgt>
<wgt id='1917'> +3.8561327E-01 </wgt>
<wgt id='1918'> +4.0542946E-01 </wgt>
<wgt id='1919'> +3.9452828E-01 </wgt>
<wgt id='1920'> +4.0905853E-01 </wgt>
<wgt id='1921'> +3.9594635E-01 </wgt>
<wgt id='1922'> +3.9558676E-01 </wgt>
<wgt id='1923'> +4.0141932E-01 </wgt>
<wgt id='1924'> +3.9593596E-01 </wgt>
<wgt id='1925'> +4.0192523E-01 </wgt>
<wgt id='1926'> +4.0027980E-01 </wgt>
<wgt id='1927'> +3.9438396E-01 </wgt>
<wgt id='1928'> +3.9556277E-01 </wgt>
<wgt id='1929'> +3.9587888E-01 </wgt>
<wgt id='1930'> +3.9223064E-01 </wgt>
<wgt id='1931'> +3.9012222E-01 </wgt>
<wgt id='1932'> +3.9979260E-01 </wgt>
<wgt id='1933'> +3.8741513E-01 </wgt>
<wgt id='1934'> +4.0189761E-01 </wgt>
<wgt id='1935'> +3.8714887E-01 </wgt>
<wgt id='1936'> +3.8778818E-01 </wgt>
<wgt id='1937'> +3.7721734E-01 </wgt>
<wgt id='1938'> +4.0045335E-01 </wgt>
<wgt id='1939'> +4.0741822E-01 </wgt>
<wgt id='1940'> +4.0987395E-01 </wgt>
<wgt id='1941'> +3.9907427E-01 </wgt>
<wgt id='1942'> +4.0472291E-01 </wgt>
<wgt id='1943'> +3.9127341E-01 </wgt>
<wgt id='1944'> +3.8563439E-01 </wgt>
<wgt id='1945'> +3.9664190E-01 </wgt>
<wgt id='1946'> +3.8328275E-01 </wgt>
<wgt id='1947'> +3.8863220E-01 </wgt>
<wgt id='1948'> +4.0184794E-01 </wgt>
<wgt id='1949'> +3.9736537E-01 </wgt>
<wgt id='1950'> +3.8833143E-01 </wgt>
<wgt id='1951'> +4.0088145E-01 </wgt>
<wgt id='1952'> +3.9531744E-01 </wgt>
<wgt id='1953'> +3.8921557E-01 </wgt>
<wgt id='1954'> +3.8952146E-01 </wgt>
<wgt id='1955'> +3.8008694E-01 </wgt>
<wgt id='1956'> +3.8761597E-01 </wgt>
<wgt id='1957'> +3.9852227E-01 </wgt>
<wgt id='1958'> +3.9689369E-01 </wgt>
<wgt id='1959'> +3.9032601E-01 </wgt>
<wgt id='1960'> +4.1252349E-01 </wgt>
<wgt id='1961'> +3.9491174E-01 </wgt>
<wgt id='1962'> +3.9286329E-01 </wgt>
<wgt id='1963'> +3.9509966E-01 </wgt>
<wgt id='1964'> +3.9778139E-01 </wgt>
<wgt id='1965'> +3.9728890E-01 </wgt>
<wgt id='1966'> +3.9422939E-01 </wgt>
<wgt id='1967'> +3.9665236E-01 </wgt>
<wgt id='1968'> +3.8514999E-01 </wgt>
<wgt id='1969'> +3.9473159E-01 </wgt>
<wgt id='1970'> +3.9788697E-01 </wgt>
<wgt id='1971'> +3.9536780E-01 </wgt>
<wgt id='1972'> +3.8885659E-01 </wgt>
<wgt id='1973'> +4.0193114E-01 </wgt>
<wgt id='1974'> +3.9300205E-01 </wgt>
<wgt id='1975'> +3.8668396E-01 </wgt>
<wgt id='1976'> +3.8717420E-01 </wgt>
<wgt id='1977'> +3.9521665E-01 </wgt>
<wgt id='1978'> +3.9133660E-01 </wgt>
<wgt id='1979'> +4.0064256E-01 </wgt>
<wgt id='1980'> +3.9456388E-01 </wgt>
<wgt id='1981'> +3.9716117E-01 </wgt>
<wgt id='1982'> +3.7871618E-01 </wgt>
<wgt id='1983'> +3.7449636E-01 </wgt>
<wgt id='1984'> +3.8534904E-01 </wgt>
<wgt id='1985'> +3.8585222E-01 </wgt>
<wgt id='1986'> +4.3753800E-01 </wgt>
<wgt id='1987'> +3.9294307E-01 </wgt>
<wgt id='1988'> +3.8371067E-01 </wgt>
<wgt id='1989'> +3.8920487E-01 </wgt>
<wgt id='1990'> +3.9426677E-01 </wgt>
<wgt id='1991'> +3.9366883E-01 </wgt>
<wgt id='1992'> +4.0803682E-01 </wgt>
<wgt id='1993'> +3.9517534E-01 </wgt>
<wgt id='1994'> +3.9679372E-01 </wgt>
<wgt id='1995'> +3.9466186E-01 </wgt>
<wgt id='1996'> +3.9091980E-01 </wgt>
<wgt id='1997'> +4.0108091E-01 </wgt>
<wgt id='1998'> +4.0062492E-01 </wgt>
<wgt id='1999'> +3.9191689E-01 </wgt>
<wgt id='2000'> +3.9459233E-01 </wgt>
<wgt id='2001'> +3.9360027E-01 </wgt>
<wgt id='2002'> +4.0385117E-01 </wgt>
<wgt id='2003'> +3.9024951E-01 </wgt>
<wgt id='2004'> +3.9902762E-01 </wgt>
<wgt id='2005'> +3.9002585E-01 </wgt>
<wgt id='2006'> +4.0239038E-01 </wgt>
<wgt id='2007'> +4.0075222E-01 </wgt>
<wgt id='2008'> +3.9743394E-01 </wgt>
<wgt id='2009'> +3.9058372E-01 </wgt>
<wgt id='2010'> +3.9634024E-01 </wgt>
<wgt id='2011'> +3.9238606E-01 </wgt>
<wgt id='2012'> +3.9275628E-01 </wgt>
<wgt id='2013'> +4.0197041E-01 </wgt>
<wgt id='2014'> +3.7778229E-01 </wgt>
<wgt id='2015'> +3.9307179E-01 </wgt>
<wgt id='2016'> +3.8508481E-01 </wgt>
<wgt id='2017'> +3.9166770E-01 </wgt>
<wgt id='2018'> +3.9520388E-01 </wgt>
<wgt id='2019'> +3.8283277E-01 </wgt>
<wgt id='2020'> +3.9394894E-01 </wgt>
<wgt id='2021'> +3.9704594E-01 </wgt>
<wgt id='2022'> +3.9431104E-01 </wgt>
</rwgt>
</event>
</LesHouchesEvents>
