<LesHouchesEvents version="3.0">
<header>
<!--
#*********************************************************************
#                                                                    *
#                        MadGraph5_aMC@NLO                           *
#                                                                    *
#                           Going Beyond                             *
#                                                                    *
#                   http://madgraph.hep.uiuc.edu                     *
#                   http://madgraph.phys.ucl.ac.be                   *
#                   http://amcatnlo.cern.ch                          *
#                                                                    *
#                     The MadGraph5_aMC@NLO team                     *
#                                                                    *
#....................................................................*
#                                                                    *
# This file contains all the information necessary to reproduce      *
# the events generated:                                              *
#                                                                    *
# 1. software version                                                *
# 2. proc_card          : code generation info including model       *
# 3. param_card         : model primary parameters in the LH format  *
# 4. run_card           : running parameters (collider and cuts)     *
# 5. pythia_card        : present only if pythia has been run        *
# 6. pgs_card           : present only if pgs has been run           *
# 7. delphes_cards      : present only if delphes has been run       *
#                                                                    *
#                                                                    *
#*********************************************************************
-->
<MGVersion>
#2.6.5
</MGVersion>
<MG5ProcCard>
<![CDATA[
#************************************************************
#*                     MadGraph5_aMC@NLO                    *
#*                                                          *
#*                *                       *                 *
#*                  *        * *        *                   *
#*                    * * * * 5 * * * *                     *
#*                  *        * *        *                   *
#*                *                       *                 *
#*                                                          *
#*                                                          *
#*         VERSION 2.6.5                 2018-02-03         *
#*                                                          *
#*    The MadGraph5_aMC@NLO Development Team - Find us at   *
#*    https://server06.fynu.ucl.ac.be/projects/madgraph     *
#*                                                          *
#************************************************************
#*                                                          *
#*               Command File for MadGraph5_aMC@NLO         *
#*                                                          *
#*     run as ./bin/mg5_aMC  filename                       *
#*                                                          *
#************************************************************
set default_unset_couplings 99
set loop_color_flows False
set gauge unitary
set max_npoint_for_channel 0
set group_subprocesses Auto
set ignore_six_quark_processes False
set loop_optimized_output True
set complex_mass_scheme False
import model STP_UFO_freeWidth
define p = g u c d s u~ c~ d~ s~
define j = g u c d s u~ c~ d~ s~
define l+ = e+ mu+
define l- = e- mu-
define vl = ve vm vt
define vl~ = ve~ vm~ vt~
define bb = b b~
define tt = t t~
generate p p > t23 > j bb tt z / h
add process p p > t23~ > j bb tt z / h
output tZ_b_LH_M600
]]>
</MG5ProcCard>
<MGProcCard>
#*********************************************************************
#                        MadGraph/MadEvent                           *
#                   http://madgraph.hep.uiuc.edu                     *
#                                                                    *
#                          proc_card.dat                             *
#*********************************************************************
#                                                                    *
#            This Files is generated by MADGRAPH 5                   *
#                                                                    *
# WARNING: This Files is generated for MADEVENT (compatibility issue)*
#          This files is NOT a valid MG4 proc_card.dat               *
#          Running this in MG4 will NEVER reproduce the result of MG5*
#                                                                    *
#*********************************************************************
#*********************************************************************
# Process(es) requested : mg2 input                                  *
#*********************************************************************
# Begin PROCESS # This is TAG. Do not modify this line
p p > t23 > j bb tt z / h           #Process
# Be carefull the coupling are here in MG5 convention
          
end_coup           # End the couplings input

done               # this tells MG there are no more procs
# End PROCESS  # This is TAG. Do not modify this line
#*********************************************************************
# Model information                                                  *
#*********************************************************************
# Begin MODEL  # This is TAG. Do not modify this line
STP_UFO_freeWidth
# End   MODEL  # This is TAG. Do not modify this line
#*********************************************************************
# Start multiparticle definitions                                    *
#*********************************************************************
# Begin MULTIPARTICLES # This is TAG. Do not modify this line

# End  MULTIPARTICLES # This is TAG. Do not modify this line
</MGProcCard>
<MGRunCard>
<![CDATA[
#*********************************************************************
#                       MadGraph5_aMC@NLO                            *
#                                                                    *
#                     run_card.dat MadEvent                          *
#                                                                    *
#  This file is used to set the parameters of the run.               *
#                                                                    *
#  Some notation/conventions:                                        *
#                                                                    *
#   Lines starting with a '# ' are info or comments                  *
#                                                                    *
#   mind the format:   value    = variable     ! comment             *
#                                                                    *
#   To display more options, you can type the command:               *
#      update full_run_card                                          *
#*********************************************************************
#
#*******************                                                 
# Running parameters
#*******************                                                 
#                                                                    
#*********************************************************************
# Tag name for the run (one word)                                    *
#*********************************************************************
  tag_1	= run_tag ! name of the run 
#*********************************************************************
# Number of events and rnd seed                                      *
# Warning: Do not generate more than 1M events in a single run       *
# If you want to run Pythia, avoid more than 50k events in a run.    *
#*********************************************************************
  1000	= nevents ! Number of unweighted events requested 
 10 = iseed ! rnd seed (0=assigned automatically=default))
#*********************************************************************
# Collider type and energy                                           *
# lpp: 0=No PDF, 1=proton, -1=antiproton, 2=photon from proton,      *
#                                         3=photon from electron     *
#*********************************************************************
  1	= lpp1 ! beam 1 type 
  1	= lpp2 ! beam 2 type
  6500.0	= ebeam1 ! beam 1 total energy in GeV
  6500.0	= ebeam2 ! beam 2 total energy in GeV
#*********************************************************************
# Beam polarization from -100 (left-handed) to 100 (right-handed)    *
#*********************************************************************
     0.0     = polbeam1 ! beam polarization for beam 1
     0.0     = polbeam2 ! beam polarization for beam 2

#*********************************************************************
# PDF CHOICE: this automatically fixes also alpha_s and its evol.    *
#*********************************************************************
  lhapdf	= pdlabel ! PDF set                                     
  325500	= lhaid ! if pdlabel=lhapdf, this is the lhapdf number
# To see heavy ion options: type "update ion_pdf"
#*********************************************************************
# Renormalization and factorization scales                           *
#*********************************************************************
  False	= fixed_ren_scale ! if .true. use fixed ren scale
  False	= fixed_fac_scale ! if .true. use fixed fac scale
  91.188	= scale ! fixed ren scale
  91.188	= dsqrt_q2fact1 ! fixed fact scale for pdf1
  91.188	= dsqrt_q2fact2 ! fixed fact scale for pdf2
  -1	= dynamical_scale_choice ! Choose one of the preselected dynamical choices
  1.0	= scalefact ! scale factor for event-by-event scales
#*********************************************************************
# Type and output format
#*********************************************************************
  True	= gridpack !True = setting up the grid pack
  -1.0	= time_of_flight ! threshold (in mm) below which the invariant livetime is not written (-1 means not written)
  3.0	= lhe_version ! Change the way clustering information pass to shower.        
  True	= clusinfo ! include clustering tag in output
  sum	= event_norm ! average/sum. Normalization of the weight in the LHEF

#*********************************************************************
# Matching parameter (MLM only)
#*********************************************************************
  0	= ickkw ! 0 no matching, 1 MLM
  1.0	= alpsfact ! scale factor for QCD emission vx
  False	= chcluster ! cluster only according to channel diag
  5	= asrwgtflavor ! highest quark flavor for a_s reweight
  True	= auto_ptj_mjj ! Automatic setting of ptj and mjj if xqcut >0
                                   ! (turn off for VBF and single top processes) 
  0.0	= xqcut ! minimum kt jet measure between partons
#*********************************************************************
#
#*********************************************************************
# handling of the helicities:
#  0: sum over all helicities
#  1: importance sampling over helicities
#*********************************************************************
  0	= nhel ! using helicities importance sampling or not.
#*********************************************************************
# Generation bias, check the wiki page below for more information:   *
#  'cp3.irmp.ucl.ac.be/projects/madgraph/wiki/LOEventGenerationBias' *
#*********************************************************************
  None	= bias_module ! Bias type of bias, [None, ptj_bias, -custom_folder-]
  {}	= bias_parameters ! Specifies the parameters of the module.
#
#*******************************                                                 
# Parton level cuts definition *
#*******************************                                     
#                                                                    
#
#*********************************************************************
# BW cutoff (M+/-bwcutoff*Gamma) ! Define on/off-shell for "$" and decay  
#*********************************************************************
  15.0	= bwcutoff ! (M+/-bwcutoff*Gamma)
#*********************************************************************
# Apply pt/E/eta/dr/mij/kt_durham cuts on decay products or not
# (note that etmiss/ptll/ptheavy/ht/sorted cuts always apply)
#*********************************************************************
  False	= cut_decays ! Cut decay products 
#*********************************************************************
# Standard Cuts                                                      *
#*********************************************************************
# Minimum and maximum pt's (for max, -1 means no cut)                *
#*********************************************************************
  5.0	= ptj ! minimum pt for the jets 
  0.0	= ptb ! minimum pt for the b 
  0.0	= pta ! minimum pt for the photons 
  0.0	= ptl ! minimum pt for the charged leptons 
  0.0	= misset ! minimum missing Et (sum of neutrino's momenta)
  -1.0	= ptjmax ! maximum pt for the jets
  -1.0	= ptbmax ! maximum pt for the b
  -1.0	= ptamax ! maximum pt for the photons
  -1.0	= ptlmax ! maximum pt for the charged leptons
  -1.0	= missetmax ! maximum missing Et (sum of neutrino's momenta)
  {}	= pt_min_pdg ! pt cut for other particles (use pdg code). Applied on particle and anti-particle
  {}	= pt_max_pdg ! pt cut for other particles (syntax e.g. {6: 100, 25: 50}) 
#*********************************************************************
# Minimum and maximum E's (in the center of mass frame)              *
#*********************************************************************
  0.0	= ej ! minimum E for the jets 
  0.0	= eb ! minimum E for the b 
  0.0	= ea ! minimum E for the photons 
  0.0	= el ! minimum E for the charged leptons 
  -1.0	= ejmax ! maximum E for the jets
  -1.0	= ebmax ! maximum E for the b
  -1.0	= eamax ! maximum E for the photons
  -1.0	= elmax ! maximum E for the charged leptons
  {}	= e_min_pdg ! E cut for other particles (use pdg code). Applied on particle and anti-particle
  {}	= e_max_pdg ! E cut for other particles (syntax e.g. {6: 100, 25: 50}) 
#*********************************************************************
# Maximum and minimum absolute rapidity (for max, -1 means no cut)   *
#*********************************************************************
  5.0	= etaj ! max rap for the jets 
  5.0	= etab ! max rap for the b
  2.5	= etaa ! max rap for the photons 
  -1.0	= etal ! max rap for the charged leptons 
  0.0	= etajmin ! min rap for the jets
  0.0	= etabmin ! min rap for the b
  0.0	= etaamin ! min rap for the photons
  0.0	= etalmin ! main rap for the charged leptons
  {}	= eta_min_pdg ! rap cut for other particles (use pdg code). Applied on particle and anti-particle
  {}	= eta_max_pdg ! rap cut for other particles (syntax e.g. {6: 2.5, 23: 5})
#*********************************************************************
# Minimum and maximum DeltaR distance                                *
#*********************************************************************
  0.01	= drjj ! min distance between jets 
  0.01	= drbb ! min distance between b's 
  0.0	= drll ! min distance between leptons 
  0.0	= draa ! min distance between gammas 
  0.01	= drbj ! min distance between b and jet 
  0.0	= draj ! min distance between gamma and jet 
  0.0	= drjl ! min distance between jet and lepton 
  0.0	= drab ! min distance between gamma and b 
  0.0	= drbl ! min distance between b and lepton 
  0.0	= dral ! min distance between gamma and lepton 
  -1.0	= drjjmax ! max distance between jets
  -1.0	= drbbmax ! max distance between b's
  -1.0	= drllmax ! max distance between leptons
  -1.0	= draamax ! max distance between gammas
  -1.0	= drbjmax ! max distance between b and jet
  -1.0	= drajmax ! max distance between gamma and jet
  -1.0	= drjlmax ! max distance between jet and lepton
  -1.0	= drabmax ! max distance between gamma and b
  -1.0	= drblmax ! max distance between b and lepton
  -1.0	= dralmax ! maxdistance between gamma and lepton
#*********************************************************************
# Minimum and maximum invariant mass for pairs                       *
# WARNING: for four lepton final state mmll cut require to have      *
#          different lepton masses for each flavor!                  *           
#*********************************************************************
  0.0	= mmjj ! min invariant mass of a jet pair 
  0.0	= mmbb ! min invariant mass of a b pair 
  0.0	= mmaa ! min invariant mass of gamma gamma pair
  0.0	= mmll ! min invariant mass of l+l- (same flavour) lepton pair
  -1.0	= mmjjmax ! max invariant mass of a jet pair
  -1.0	= mmbbmax ! max invariant mass of a b pair
  -1.0	= mmaamax ! max invariant mass of gamma gamma pair
  -1.0	= mmllmax ! max invariant mass of l+l- (same flavour) lepton pair
  {}	= mxx_min_pdg ! min invariant mass of a pair of particles X/X~ (e.g. {6:250})
  {'default': False}	= mxx_only_part_antipart ! if True the invariant mass is applied only 
                       ! to pairs of particle/antiparticle and not to pairs of the same pdg codes.  
#*********************************************************************
# Minimum and maximum invariant mass for all letpons                 *
#*********************************************************************
  0.0	= mmnl ! min invariant mass for all letpons (l+- and vl) 
  -1.0	= mmnlmax ! max invariant mass for all letpons (l+- and vl) 
#*********************************************************************
# Minimum and maximum pt for 4-momenta sum of leptons                *
#*********************************************************************
  0.0	= ptllmin ! Minimum pt for 4-momenta sum of leptons(l and vl)
  -1.0	= ptllmax ! Maximum pt for 4-momenta sum of leptons(l and vl)
#*********************************************************************
# Inclusive cuts                                                     *
#*********************************************************************
  0.0	= ptheavy ! minimum pt for at least one heavy final state
  0.0	= xptj ! minimum pt for at least one jet  
  0.0	= xptb ! minimum pt for at least one b 
  0.0	= xpta ! minimum pt for at least one photon 
  0.0	= xptl ! minimum pt for at least one charged lepton 
#*********************************************************************
# Control the pt's of the jets sorted by pt                          *
#*********************************************************************
  0.0	= ptj1min ! minimum pt for the leading jet in pt
  0.0	= ptj2min ! minimum pt for the second jet in pt
  0.0	= ptj3min ! minimum pt for the third jet in pt
  0.0	= ptj4min ! minimum pt for the fourth jet in pt
  -1.0	= ptj1max ! maximum pt for the leading jet in pt 
  -1.0	= ptj2max ! maximum pt for the second jet in pt
  -1.0	= ptj3max ! maximum pt for the third jet in pt
  -1.0	= ptj4max ! maximum pt for the fourth jet in pt
  0	= cutuse ! reject event if fails any (0) / all (1) jet pt cuts
#*********************************************************************
# Control the pt's of leptons sorted by pt                           *
#*********************************************************************
  0.0	= ptl1min ! minimum pt for the leading lepton in pt
  0.0	= ptl2min ! minimum pt for the second lepton in pt
  0.0	= ptl3min ! minimum pt for the third lepton in pt
  0.0	= ptl4min ! minimum pt for the fourth lepton in pt
  -1.0	= ptl1max ! maximum pt for the leading lepton in pt 
  -1.0	= ptl2max ! maximum pt for the second lepton in pt
  -1.0	= ptl3max ! maximum pt for the third lepton in pt
  -1.0	= ptl4max ! maximum pt for the fourth lepton in pt
#*********************************************************************
# Control the Ht(k)=Sum of k leading jets                            *
#*********************************************************************
  0.0	= htjmin ! minimum jet HT=Sum(jet pt)
  -1.0	= htjmax ! maximum jet HT=Sum(jet pt)
  0.0	= ihtmin !inclusive Ht for all partons (including b)
  -1.0	= ihtmax !inclusive Ht for all partons (including b)
  0.0	= ht2min ! minimum Ht for the two leading jets
  0.0	= ht3min ! minimum Ht for the three leading jets
  0.0	= ht4min ! minimum Ht for the four leading jets
  -1.0	= ht2max ! maximum Ht for the two leading jets
  -1.0	= ht3max ! maximum Ht for the three leading jets
  -1.0	= ht4max ! maximum Ht for the four leading jets
#***********************************************************************
# Photon-isolation cuts, according to hep-ph/9801442                   *
# When ptgmin=0, all the other parameters are ignored                  *
# When ptgmin>0, pta and draj are not going to be used                 *
#***********************************************************************
  0.0	= ptgmin ! Min photon transverse momentum
  0.4	= r0gamma ! Radius of isolation code
  1.0	= xn ! n parameter of eq.(3.4) in hep-ph/9801442
  1.0	= epsgamma ! epsilon_gamma parameter of eq.(3.4) in hep-ph/9801442
  True	= isoem ! isolate photons from EM energy (photons and leptons)
#*********************************************************************
# WBF cuts                                                           *
#*********************************************************************
  0.0	= xetamin ! minimum rapidity for two jets in the WBF case  
  0.0	= deltaeta ! minimum rapidity for two jets in the WBF case 
#***********************************************************************
# Turn on either the ktdurham or ptlund cut to activate                *
# CKKW(L) merging with Pythia8 [arXiv:1410.3012, arXiv:1109.4829]      *
#***********************************************************************
  -1.0	= ktdurham 
  0.4	= dparameter 
  -1.0	= ptlund 
  21, 1, 2, 3, 4, 5, 6	= pdgs_for_merging_cut ! PDGs for two cuts above   
#*********************************************************************
# maximal pdg code for quark to be considered as a light jet         *
# (otherwise b cuts are applied)                                     *
#*********************************************************************
  4	= maxjetflavor ! Maximum jet pdg code
#*********************************************************************
#
#*********************************************************************
# Store info for systematics studies                                 *
# WARNING: Do not use for interference type of computation           *
#*********************************************************************
  True	= use_syst ! Enable systematics studies
#
  None	= systematics_program ! none, systematics [python], SysCalc [depreceted, C++]
['--mur=0.5,1,2', '--muf=0.5,1,2', '--pdf=errorset'] = systematics_arguments ! see: https://cp3.irmp.ucl.ac.be/projects/madgraph/wiki/Systematics#Systematicspythonmodule
# Syscalc is deprecated but to see the associate options type'update syscalc'#********************************************************************* 
#  Additional hidden parameters
#*********************************************************************
  True	= pdfwgt # hidden_parameter
  1.0	= ptonium # hidden_parameter
  1	= highestmult # hidden_parameter
  1	= ktscheme # hidden_parameter
  0.6	= etaonium # hidden_parameter
]]>
</MGRunCard>
<slha>
######################################################################
## PARAM_CARD AUTOMATICALY GENERATED BY MG5                       ####
######################################################################
###################################
## INFORMATION FOR BSM
###################################
BLOCK BSM # 
      1 1.000000e-01 # cltw
      2 0.000000e+00 # crtw
      3 1.000000e-01 # cltz
      4 0.000000e+00 # crtz
      5 1.000000e-01 # clth
      6 0.000000e+00 # crth
      7 1.000000e+00 # clbw
      8 1.000000e+00 # crbw
      9 1.000000e+00 # clbz
      10 1.000000e+00 # crbz
      11 1.000000e+00 # clbh
      12 1.000000e+00 # crbh
      13 1.000000e+00 # clxw
      14 1.000000e+00 # crxw
      15 1.000000e+00 # clyw
      16 1.000000e+00 # cryw
      17 1.000000e+00 # clvw
      18 1.000000e+00 # crvw
      19 3.000000e+03 # lambda
###################################
## INFORMATION FOR CKMBLOCK
###################################
BLOCK CKMBLOCK # 
      1 2.277360e-01 # cabi
###################################
## INFORMATION FOR MASS
###################################
BLOCK MASS # 
      1 5.040000e-03 # md
      2 2.550000e-03 # mu
      3 1.010000e-01 # ms
      4 1.270000e+00 # mc
      5 4.670000e+00 # mbot
      6 1.725000e+02 # mtop
      11 5.110000e-04 # me
      13 1.056600e-01 # mm
      15 1.777000e+00 # mta
      23 9.118760e+01 # mz
      24 8.039900e+01 # mw
      25 1.250000e+02 # mh
      8000001 6.000000e+02 # mt23
      8000002 7.000000e+02 # mb13
      8000003 7.000000e+02 # mx53
      8000004 7.000000e+02 # my43
      8000005 7.000000e+02 # mv83
      12 0.000000e+00 # ve : 0.0
      14 0.000000e+00 # vm : 0.0
      16 0.000000e+00 # vt : 0.0
      21 0.000000e+00 # g : 0.0
      22 0.000000e+00 # a : 0.0
###################################
## INFORMATION FOR SMINPUTS
###################################
BLOCK SMINPUTS # 
      1 1.279000e+02 # aewm1
      2 1.166370e-05 # gf
      3 1.184000e-01 # as
###################################
## INFORMATION FOR YUKAWA
###################################
BLOCK YUKAWA # 
      1 5.040000e-03 # ymdo
      2 2.550000e-03 # ymup
      3 1.010000e-01 # yms
      4 1.270000e+00 # ymc
      5 4.670000e+00 # ymb
      6 1.725000e+02 # ymt
      11 5.110000e-04 # yme
      13 1.056600e-01 # ymm
      15 1.777000e+00 # ymtau
###################################
## INFORMATION FOR DECAY
###################################
BLOCK QNUMBERS 8000001 #  t23
      1 2 # 3 times electric charge
      2 2 # number of spin states (2s+1)
      3 3 # colour rep (1: singlet, 3: triplet, 8: octet)
      4 1 # particle/antiparticle distinction (0=own anti)
###################################
## INFORMATION FOR QNUMBERS 8000002
###################################
BLOCK QNUMBERS 8000002 #  b13
      1 -1 # 3 times electric charge
      2 2 # number of spin states (2s+1)
      3 3 # colour rep (1: singlet, 3: triplet, 8: octet)
      4 1 # particle/antiparticle distinction (0=own anti)
###################################
## INFORMATION FOR QNUMBERS 8000003
###################################
BLOCK QNUMBERS 8000003 #  x53
      1 5 # 3 times electric charge
      2 2 # number of spin states (2s+1)
      3 3 # colour rep (1: singlet, 3: triplet, 8: octet)
      4 1 # particle/antiparticle distinction (0=own anti)
###################################
## INFORMATION FOR QNUMBERS 8000004
###################################
BLOCK QNUMBERS 8000004 #  y43
      1 -4 # 3 times electric charge
      2 2 # number of spin states (2s+1)
      3 3 # colour rep (1: singlet, 3: triplet, 8: octet)
      4 1 # particle/antiparticle distinction (0=own anti)
###################################
## INFORMATION FOR QNUMBERS 8000005
###################################
BLOCK QNUMBERS 8000005 #  v83
      1 8 # 3 times electric charge
      2 2 # number of spin states (2s+1)
      3 3 # colour rep (1: singlet, 3: triplet, 8: octet)
      4 1 # particle/antiparticle distinction (0=own anti)
#
#*************************
#      Decay widths      *
#*************************
#
#      PDG        Width
DECAY  1   0.000000e+00
#
#      PDG        Width
DECAY  2   0.000000e+00
#
#      PDG        Width
DECAY  3   0.000000e+00
#
#      PDG        Width
DECAY  4   0.000000e+00
#
#      PDG        Width
DECAY  5   0.000000e+00
#
#      PDG        Width
DECAY  6   1.476600e+00
#  BR             NDA  ID1    ID2   ...
   1.000000e+00   2    5  24 # 1.4766
#
#      PDG        Width
DECAY  11   0.000000e+00
#
#      PDG        Width
DECAY  12   0.000000e+00
#
#      PDG        Width
DECAY  13   0.000000e+00
#
#      PDG        Width
DECAY  14   0.000000e+00
#
#      PDG        Width
DECAY  15   0.000000e+00
#
#      PDG        Width
DECAY  16   0.000000e+00
#
#      PDG        Width
DECAY  21   0.000000e+00
#
#      PDG        Width
DECAY  22   0.000000e+00
#
#      PDG        Width
DECAY  23   2.444424e+00
#  BR             NDA  ID1    ID2   ...
   1.521708e-01   2    -1  1 # 0.371969955619
   1.521708e-01   2    -3  3 # 0.371969955619
   1.505549e-01   2    -5  5 # 0.368020010878
   1.181096e-01   2    -2  2 # 0.28870994087
   1.179910e-01   2    -4  4 # 0.288420032184
   6.854376e-02   2    -12  12 # 0.167550011994
   6.854376e-02   2    -14  14 # 0.167550011994
   6.854376e-02   2    -16  16 # 0.167550011994
   3.448338e-02   2    -11  11 # 0.0842920016731
   3.448297e-02   2    -13  13 # 0.0842909994593
   3.440524e-02   2    -15  15 # 0.0841009943818
#
#      PDG        Width
DECAY  24   2.046081e+00
#  BR             NDA  ID1    ID2   ...
   3.164098e-01   2    -1  2 # 0.647400079994
   3.162876e-01   2    -3  4 # 0.647150048896
   1.111344e-01   2    -11  12 # 0.227389984286
   1.111344e-01   2    -13  14 # 0.227389984286
   1.110513e-01   2    -15  16 # 0.227219954955
   1.699444e-02   2    -3  2 # 0.0347720007896
   1.698809e-02   2    -1  4 # 0.0347590081753
#
#      PDG        Width
DECAY  25   5.753088e-03
#
#      PDG        Width
DECAY  8000001   1.000000e-03
#
#      PDG        Width
DECAY  8000002   1.000000e+01
#
#      PDG        Width
DECAY  8000003   1.000000e+01
#
#      PDG        Width
DECAY  8000004   1.000000e+01
#
#      PDG        Width
DECAY  8000005   1.000000e+00
</slha>
<initrwgt>
<weightgroup name="NNPDF31_nnlo_as_0118_nf_4_mc_hessian" combine="symmhessian"> # 325500: Hessian NNPDF31_nnlo_as_0118_nf_4_mc_hessian
<weight id="1001" MUR="1.0" MUF="1.0" PDF="325500" >  </weight>
<weightgroup name="Central scale variation" combine="envelope">
</weightgroup> PDF 
<weight id="1002" MUR="1.0" MUF="1.0" DYN_SCALE="1" PDF="325500" > dyn_scale_choice=sum pt  </weight>
<weight id="1003" MUR="1.0" MUF="1.0" DYN_SCALE="2" PDF="325500" > dyn_scale_choice=HT  </weight>
<weight id="1004" MUR="1.0" MUF="1.0" DYN_SCALE="3" PDF="325500" > dyn_scale_choice=HT/2  </weight>
<weight id="1005" MUR="1.0" MUF="1.0" DYN_SCALE="4" PDF="325500" > dyn_scale_choice=sqrts  </weight>
<weight id="1006" MUR="2.0" MUF="1.0" PDF="325500" > MUR=2.0  </weight>
<weight id="1007" MUR="2.0" MUF="1.0" DYN_SCALE="1" PDF="325500" > MUR=2.0 dyn_scale_choice=sum pt  </weight>
<weight id="1008" MUR="2.0" MUF="1.0" DYN_SCALE="2" PDF="325500" > MUR=2.0 dyn_scale_choice=HT  </weight>
<weight id="1009" MUR="2.0" MUF="1.0" DYN_SCALE="3" PDF="325500" > MUR=2.0 dyn_scale_choice=HT/2  </weight>
<weight id="1010" MUR="2.0" MUF="1.0" DYN_SCALE="4" PDF="325500" > MUR=2.0 dyn_scale_choice=sqrts  </weight>
<weight id="1011" MUR="0.5" MUF="1.0" PDF="325500" > MUR=0.5  </weight>
<weight id="1012" MUR="0.5" MUF="1.0" DYN_SCALE="1" PDF="325500" > MUR=0.5 dyn_scale_choice=sum pt  </weight>
<weight id="1013" MUR="0.5" MUF="1.0" DYN_SCALE="2" PDF="325500" > MUR=0.5 dyn_scale_choice=HT  </weight>
<weight id="1014" MUR="0.5" MUF="1.0" DYN_SCALE="3" PDF="325500" > MUR=0.5 dyn_scale_choice=HT/2  </weight>
<weight id="1015" MUR="0.5" MUF="1.0" DYN_SCALE="4" PDF="325500" > MUR=0.5 dyn_scale_choice=sqrts  </weight>
<weight id="1016" MUR="1.0" MUF="2.0" PDF="325500" > MUF=2.0  </weight>
<weight id="1017" MUR="1.0" MUF="2.0" DYN_SCALE="1" PDF="325500" > MUF=2.0 dyn_scale_choice=sum pt  </weight>
<weight id="1018" MUR="1.0" MUF="2.0" DYN_SCALE="2" PDF="325500" > MUF=2.0 dyn_scale_choice=HT  </weight>
<weight id="1019" MUR="1.0" MUF="2.0" DYN_SCALE="3" PDF="325500" > MUF=2.0 dyn_scale_choice=HT/2  </weight>
<weight id="1020" MUR="1.0" MUF="2.0" DYN_SCALE="4" PDF="325500" > MUF=2.0 dyn_scale_choice=sqrts  </weight>
<weight id="1021" MUR="2.0" MUF="2.0" PDF="325500" > MUR=2.0 MUF=2.0  </weight>
<weight id="1022" MUR="2.0" MUF="2.0" DYN_SCALE="1" PDF="325500" > MUR=2.0 MUF=2.0 dyn_scale_choice=sum pt  </weight>
<weight id="1023" MUR="2.0" MUF="2.0" DYN_SCALE="2" PDF="325500" > MUR=2.0 MUF=2.0 dyn_scale_choice=HT  </weight>
<weight id="1024" MUR="2.0" MUF="2.0" DYN_SCALE="3" PDF="325500" > MUR=2.0 MUF=2.0 dyn_scale_choice=HT/2  </weight>
<weight id="1025" MUR="2.0" MUF="2.0" DYN_SCALE="4" PDF="325500" > MUR=2.0 MUF=2.0 dyn_scale_choice=sqrts  </weight>
<weight id="1026" MUR="0.5" MUF="2.0" PDF="325500" > MUR=0.5 MUF=2.0  </weight>
<weight id="1027" MUR="0.5" MUF="2.0" DYN_SCALE="1" PDF="325500" > MUR=0.5 MUF=2.0 dyn_scale_choice=sum pt  </weight>
<weight id="1028" MUR="0.5" MUF="2.0" DYN_SCALE="2" PDF="325500" > MUR=0.5 MUF=2.0 dyn_scale_choice=HT  </weight>
<weight id="1029" MUR="0.5" MUF="2.0" DYN_SCALE="3" PDF="325500" > MUR=0.5 MUF=2.0 dyn_scale_choice=HT/2  </weight>
<weight id="1030" MUR="0.5" MUF="2.0" DYN_SCALE="4" PDF="325500" > MUR=0.5 MUF=2.0 dyn_scale_choice=sqrts  </weight>
<weight id="1031" MUR="1.0" MUF="0.5" PDF="325500" > MUF=0.5  </weight>
<weight id="1032" MUR="1.0" MUF="0.5" DYN_SCALE="1" PDF="325500" > MUF=0.5 dyn_scale_choice=sum pt  </weight>
<weight id="1033" MUR="1.0" MUF="0.5" DYN_SCALE="2" PDF="325500" > MUF=0.5 dyn_scale_choice=HT  </weight>
<weight id="1034" MUR="1.0" MUF="0.5" DYN_SCALE="3" PDF="325500" > MUF=0.5 dyn_scale_choice=HT/2  </weight>
<weight id="1035" MUR="1.0" MUF="0.5" DYN_SCALE="4" PDF="325500" > MUF=0.5 dyn_scale_choice=sqrts  </weight>
<weight id="1036" MUR="2.0" MUF="0.5" PDF="325500" > MUR=2.0 MUF=0.5  </weight>
<weight id="1037" MUR="2.0" MUF="0.5" DYN_SCALE="1" PDF="325500" > MUR=2.0 MUF=0.5 dyn_scale_choice=sum pt  </weight>
<weight id="1038" MUR="2.0" MUF="0.5" DYN_SCALE="2" PDF="325500" > MUR=2.0 MUF=0.5 dyn_scale_choice=HT  </weight>
<weight id="1039" MUR="2.0" MUF="0.5" DYN_SCALE="3" PDF="325500" > MUR=2.0 MUF=0.5 dyn_scale_choice=HT/2  </weight>
<weight id="1040" MUR="2.0" MUF="0.5" DYN_SCALE="4" PDF="325500" > MUR=2.0 MUF=0.5 dyn_scale_choice=sqrts  </weight>
<weight id="1041" MUR="0.5" MUF="0.5" PDF="325500" > MUR=0.5 MUF=0.5  </weight>
<weight id="1042" MUR="0.5" MUF="0.5" DYN_SCALE="1" PDF="325500" > MUR=0.5 MUF=0.5 dyn_scale_choice=sum pt  </weight>
<weight id="1043" MUR="0.5" MUF="0.5" DYN_SCALE="2" PDF="325500" > MUR=0.5 MUF=0.5 dyn_scale_choice=HT  </weight>
<weight id="1044" MUR="0.5" MUF="0.5" DYN_SCALE="3" PDF="325500" > MUR=0.5 MUF=0.5 dyn_scale_choice=HT/2  </weight>
<weight id="1045" MUR="0.5" MUF="0.5" DYN_SCALE="4" PDF="325500" > MUR=0.5 MUF=0.5 dyn_scale_choice=sqrts  </weight>
</weightgroup> # scale
<weightgroup name="Emission scale variation" combine="envelope">
<weight id="1046" MUR="1.0" MUF="1.0" ALPSFACT="0.5" PDF="325500" > alpsfact=0.5  </weight>
<weight id="1047" MUR="1.0" MUF="1.0" ALPSFACT="2.0" PDF="325500" > alpsfact=2.0  </weight>
</weightgroup> # ALPS
<weightgroup name="NNPDF31_nnlo_as_0118_nf_4_mc_hessian" combine="symmhessian"> # 325500: Hessian NNPDF31_nnlo_as_0118_nf_4_mc_hessian
<weight id="1048" MUR="1.0" MUF="1.0" PDF="325500" >  </weight>
<weight id="1049" MUR="1.0" MUF="1.0" PDF="325501" > PDF=325500 MemberID=1 </weight>
<weight id="1050" MUR="1.0" MUF="1.0" PDF="325502" > PDF=325500 MemberID=2 </weight>
<weight id="1051" MUR="1.0" MUF="1.0" PDF="325503" > PDF=325500 MemberID=3 </weight>
<weight id="1052" MUR="1.0" MUF="1.0" PDF="325504" > PDF=325500 MemberID=4 </weight>
<weight id="1053" MUR="1.0" MUF="1.0" PDF="325505" > PDF=325500 MemberID=5 </weight>
<weight id="1054" MUR="1.0" MUF="1.0" PDF="325506" > PDF=325500 MemberID=6 </weight>
<weight id="1055" MUR="1.0" MUF="1.0" PDF="325507" > PDF=325500 MemberID=7 </weight>
<weight id="1056" MUR="1.0" MUF="1.0" PDF="325508" > PDF=325500 MemberID=8 </weight>
<weight id="1057" MUR="1.0" MUF="1.0" PDF="325509" > PDF=325500 MemberID=9 </weight>
<weight id="1058" MUR="1.0" MUF="1.0" PDF="325510" > PDF=325500 MemberID=10 </weight>
<weight id="1059" MUR="1.0" MUF="1.0" PDF="325511" > PDF=325500 MemberID=11 </weight>
<weight id="1060" MUR="1.0" MUF="1.0" PDF="325512" > PDF=325500 MemberID=12 </weight>
<weight id="1061" MUR="1.0" MUF="1.0" PDF="325513" > PDF=325500 MemberID=13 </weight>
<weight id="1062" MUR="1.0" MUF="1.0" PDF="325514" > PDF=325500 MemberID=14 </weight>
<weight id="1063" MUR="1.0" MUF="1.0" PDF="325515" > PDF=325500 MemberID=15 </weight>
<weight id="1064" MUR="1.0" MUF="1.0" PDF="325516" > PDF=325500 MemberID=16 </weight>
<weight id="1065" MUR="1.0" MUF="1.0" PDF="325517" > PDF=325500 MemberID=17 </weight>
<weight id="1066" MUR="1.0" MUF="1.0" PDF="325518" > PDF=325500 MemberID=18 </weight>
<weight id="1067" MUR="1.0" MUF="1.0" PDF="325519" > PDF=325500 MemberID=19 </weight>
<weight id="1068" MUR="1.0" MUF="1.0" PDF="325520" > PDF=325500 MemberID=20 </weight>
<weight id="1069" MUR="1.0" MUF="1.0" PDF="325521" > PDF=325500 MemberID=21 </weight>
<weight id="1070" MUR="1.0" MUF="1.0" PDF="325522" > PDF=325500 MemberID=22 </weight>
<weight id="1071" MUR="1.0" MUF="1.0" PDF="325523" > PDF=325500 MemberID=23 </weight>
<weight id="1072" MUR="1.0" MUF="1.0" PDF="325524" > PDF=325500 MemberID=24 </weight>
<weight id="1073" MUR="1.0" MUF="1.0" PDF="325525" > PDF=325500 MemberID=25 </weight>
<weight id="1074" MUR="1.0" MUF="1.0" PDF="325526" > PDF=325500 MemberID=26 </weight>
<weight id="1075" MUR="1.0" MUF="1.0" PDF="325527" > PDF=325500 MemberID=27 </weight>
<weight id="1076" MUR="1.0" MUF="1.0" PDF="325528" > PDF=325500 MemberID=28 </weight>
<weight id="1077" MUR="1.0" MUF="1.0" PDF="325529" > PDF=325500 MemberID=29 </weight>
<weight id="1078" MUR="1.0" MUF="1.0" PDF="325530" > PDF=325500 MemberID=30 </weight>
<weight id="1079" MUR="1.0" MUF="1.0" PDF="325531" > PDF=325500 MemberID=31 </weight>
<weight id="1080" MUR="1.0" MUF="1.0" PDF="325532" > PDF=325500 MemberID=32 </weight>
<weight id="1081" MUR="1.0" MUF="1.0" PDF="325533" > PDF=325500 MemberID=33 </weight>
<weight id="1082" MUR="1.0" MUF="1.0" PDF="325534" > PDF=325500 MemberID=34 </weight>
<weight id="1083" MUR="1.0" MUF="1.0" PDF="325535" > PDF=325500 MemberID=35 </weight>
<weight id="1084" MUR="1.0" MUF="1.0" PDF="325536" > PDF=325500 MemberID=36 </weight>
<weight id="1085" MUR="1.0" MUF="1.0" PDF="325537" > PDF=325500 MemberID=37 </weight>
<weight id="1086" MUR="1.0" MUF="1.0" PDF="325538" > PDF=325500 MemberID=38 </weight>
<weight id="1087" MUR="1.0" MUF="1.0" PDF="325539" > PDF=325500 MemberID=39 </weight>
<weight id="1088" MUR="1.0" MUF="1.0" PDF="325540" > PDF=325500 MemberID=40 </weight>
<weight id="1089" MUR="1.0" MUF="1.0" PDF="325541" > PDF=325500 MemberID=41 </weight>
<weight id="1090" MUR="1.0" MUF="1.0" PDF="325542" > PDF=325500 MemberID=42 </weight>
<weight id="1091" MUR="1.0" MUF="1.0" PDF="325543" > PDF=325500 MemberID=43 </weight>
<weight id="1092" MUR="1.0" MUF="1.0" PDF="325544" > PDF=325500 MemberID=44 </weight>
<weight id="1093" MUR="1.0" MUF="1.0" PDF="325545" > PDF=325500 MemberID=45 </weight>
<weight id="1094" MUR="1.0" MUF="1.0" PDF="325546" > PDF=325500 MemberID=46 </weight>
<weight id="1095" MUR="1.0" MUF="1.0" PDF="325547" > PDF=325500 MemberID=47 </weight>
<weight id="1096" MUR="1.0" MUF="1.0" PDF="325548" > PDF=325500 MemberID=48 </weight>
<weight id="1097" MUR="1.0" MUF="1.0" PDF="325549" > PDF=325500 MemberID=49 </weight>
<weight id="1098" MUR="1.0" MUF="1.0" PDF="325550" > PDF=325500 MemberID=50 </weight>
<weight id="1099" MUR="1.0" MUF="1.0" PDF="325551" > PDF=325500 MemberID=51 </weight>
<weight id="1100" MUR="1.0" MUF="1.0" PDF="325552" > PDF=325500 MemberID=52 </weight>
<weight id="1101" MUR="1.0" MUF="1.0" PDF="325553" > PDF=325500 MemberID=53 </weight>
<weight id="1102" MUR="1.0" MUF="1.0" PDF="325554" > PDF=325500 MemberID=54 </weight>
<weight id="1103" MUR="1.0" MUF="1.0" PDF="325555" > PDF=325500 MemberID=55 </weight>
<weight id="1104" MUR="1.0" MUF="1.0" PDF="325556" > PDF=325500 MemberID=56 </weight>
<weight id="1105" MUR="1.0" MUF="1.0" PDF="325557" > PDF=325500 MemberID=57 </weight>
<weight id="1106" MUR="1.0" MUF="1.0" PDF="325558" > PDF=325500 MemberID=58 </weight>
<weight id="1107" MUR="1.0" MUF="1.0" PDF="325559" > PDF=325500 MemberID=59 </weight>
<weight id="1108" MUR="1.0" MUF="1.0" PDF="325560" > PDF=325500 MemberID=60 </weight>
<weight id="1109" MUR="1.0" MUF="1.0" PDF="325561" > PDF=325500 MemberID=61 </weight>
<weight id="1110" MUR="1.0" MUF="1.0" PDF="325562" > PDF=325500 MemberID=62 </weight>
<weight id="1111" MUR="1.0" MUF="1.0" PDF="325563" > PDF=325500 MemberID=63 </weight>
<weight id="1112" MUR="1.0" MUF="1.0" PDF="325564" > PDF=325500 MemberID=64 </weight>
<weight id="1113" MUR="1.0" MUF="1.0" PDF="325565" > PDF=325500 MemberID=65 </weight>
<weight id="1114" MUR="1.0" MUF="1.0" PDF="325566" > PDF=325500 MemberID=66 </weight>
<weight id="1115" MUR="1.0" MUF="1.0" PDF="325567" > PDF=325500 MemberID=67 </weight>
<weight id="1116" MUR="1.0" MUF="1.0" PDF="325568" > PDF=325500 MemberID=68 </weight>
<weight id="1117" MUR="1.0" MUF="1.0" PDF="325569" > PDF=325500 MemberID=69 </weight>
<weight id="1118" MUR="1.0" MUF="1.0" PDF="325570" > PDF=325500 MemberID=70 </weight>
<weight id="1119" MUR="1.0" MUF="1.0" PDF="325571" > PDF=325500 MemberID=71 </weight>
<weight id="1120" MUR="1.0" MUF="1.0" PDF="325572" > PDF=325500 MemberID=72 </weight>
<weight id="1121" MUR="1.0" MUF="1.0" PDF="325573" > PDF=325500 MemberID=73 </weight>
<weight id="1122" MUR="1.0" MUF="1.0" PDF="325574" > PDF=325500 MemberID=74 </weight>
<weight id="1123" MUR="1.0" MUF="1.0" PDF="325575" > PDF=325500 MemberID=75 </weight>
<weight id="1124" MUR="1.0" MUF="1.0" PDF="325576" > PDF=325500 MemberID=76 </weight>
<weight id="1125" MUR="1.0" MUF="1.0" PDF="325577" > PDF=325500 MemberID=77 </weight>
<weight id="1126" MUR="1.0" MUF="1.0" PDF="325578" > PDF=325500 MemberID=78 </weight>
<weight id="1127" MUR="1.0" MUF="1.0" PDF="325579" > PDF=325500 MemberID=79 </weight>
<weight id="1128" MUR="1.0" MUF="1.0" PDF="325580" > PDF=325500 MemberID=80 </weight>
<weight id="1129" MUR="1.0" MUF="1.0" PDF="325581" > PDF=325500 MemberID=81 </weight>
<weight id="1130" MUR="1.0" MUF="1.0" PDF="325582" > PDF=325500 MemberID=82 </weight>
<weight id="1131" MUR="1.0" MUF="1.0" PDF="325583" > PDF=325500 MemberID=83 </weight>
<weight id="1132" MUR="1.0" MUF="1.0" PDF="325584" > PDF=325500 MemberID=84 </weight>
<weight id="1133" MUR="1.0" MUF="1.0" PDF="325585" > PDF=325500 MemberID=85 </weight>
<weight id="1134" MUR="1.0" MUF="1.0" PDF="325586" > PDF=325500 MemberID=86 </weight>
<weight id="1135" MUR="1.0" MUF="1.0" PDF="325587" > PDF=325500 MemberID=87 </weight>
<weight id="1136" MUR="1.0" MUF="1.0" PDF="325588" > PDF=325500 MemberID=88 </weight>
<weight id="1137" MUR="1.0" MUF="1.0" PDF="325589" > PDF=325500 MemberID=89 </weight>
<weight id="1138" MUR="1.0" MUF="1.0" PDF="325590" > PDF=325500 MemberID=90 </weight>
<weight id="1139" MUR="1.0" MUF="1.0" PDF="325591" > PDF=325500 MemberID=91 </weight>
<weight id="1140" MUR="1.0" MUF="1.0" PDF="325592" > PDF=325500 MemberID=92 </weight>
<weight id="1141" MUR="1.0" MUF="1.0" PDF="325593" > PDF=325500 MemberID=93 </weight>
<weight id="1142" MUR="1.0" MUF="1.0" PDF="325594" > PDF=325500 MemberID=94 </weight>
<weight id="1143" MUR="1.0" MUF="1.0" PDF="325595" > PDF=325500 MemberID=95 </weight>
<weight id="1144" MUR="1.0" MUF="1.0" PDF="325596" > PDF=325500 MemberID=96 </weight>
<weight id="1145" MUR="1.0" MUF="1.0" PDF="325597" > PDF=325500 MemberID=97 </weight>
<weight id="1146" MUR="1.0" MUF="1.0" PDF="325598" > PDF=325500 MemberID=98 </weight>
<weight id="1147" MUR="1.0" MUF="1.0" PDF="325599" > PDF=325500 MemberID=99 </weight>
<weight id="1148" MUR="1.0" MUF="1.0" PDF="325600" > PDF=325500 MemberID=100 </weight>
</weightgroup> # PDFSET -> PDFSET
<weightgroup name="NNPDF31_nnlo_as_0118_nf_4" combine="replicas"> # 320900: NNPDF3.1 NNLO global fit, nf=4. mem=0 ; average on replicas; mem=1-100 ; PDF replicas
<weight id="1149" MUR="1.0" MUF="1.0" PDF="320900" > PDF=320900 MemberID=0 </weight>
<weight id="1150" MUR="1.0" MUF="1.0" PDF="320901" > PDF=320900 MemberID=1 </weight>
<weight id="1151" MUR="1.0" MUF="1.0" PDF="320902" > PDF=320900 MemberID=2 </weight>
<weight id="1152" MUR="1.0" MUF="1.0" PDF="320903" > PDF=320900 MemberID=3 </weight>
<weight id="1153" MUR="1.0" MUF="1.0" PDF="320904" > PDF=320900 MemberID=4 </weight>
<weight id="1154" MUR="1.0" MUF="1.0" PDF="320905" > PDF=320900 MemberID=5 </weight>
<weight id="1155" MUR="1.0" MUF="1.0" PDF="320906" > PDF=320900 MemberID=6 </weight>
<weight id="1156" MUR="1.0" MUF="1.0" PDF="320907" > PDF=320900 MemberID=7 </weight>
<weight id="1157" MUR="1.0" MUF="1.0" PDF="320908" > PDF=320900 MemberID=8 </weight>
<weight id="1158" MUR="1.0" MUF="1.0" PDF="320909" > PDF=320900 MemberID=9 </weight>
<weight id="1159" MUR="1.0" MUF="1.0" PDF="320910" > PDF=320900 MemberID=10 </weight>
<weight id="1160" MUR="1.0" MUF="1.0" PDF="320911" > PDF=320900 MemberID=11 </weight>
<weight id="1161" MUR="1.0" MUF="1.0" PDF="320912" > PDF=320900 MemberID=12 </weight>
<weight id="1162" MUR="1.0" MUF="1.0" PDF="320913" > PDF=320900 MemberID=13 </weight>
<weight id="1163" MUR="1.0" MUF="1.0" PDF="320914" > PDF=320900 MemberID=14 </weight>
<weight id="1164" MUR="1.0" MUF="1.0" PDF="320915" > PDF=320900 MemberID=15 </weight>
<weight id="1165" MUR="1.0" MUF="1.0" PDF="320916" > PDF=320900 MemberID=16 </weight>
<weight id="1166" MUR="1.0" MUF="1.0" PDF="320917" > PDF=320900 MemberID=17 </weight>
<weight id="1167" MUR="1.0" MUF="1.0" PDF="320918" > PDF=320900 MemberID=18 </weight>
<weight id="1168" MUR="1.0" MUF="1.0" PDF="320919" > PDF=320900 MemberID=19 </weight>
<weight id="1169" MUR="1.0" MUF="1.0" PDF="320920" > PDF=320900 MemberID=20 </weight>
<weight id="1170" MUR="1.0" MUF="1.0" PDF="320921" > PDF=320900 MemberID=21 </weight>
<weight id="1171" MUR="1.0" MUF="1.0" PDF="320922" > PDF=320900 MemberID=22 </weight>
<weight id="1172" MUR="1.0" MUF="1.0" PDF="320923" > PDF=320900 MemberID=23 </weight>
<weight id="1173" MUR="1.0" MUF="1.0" PDF="320924" > PDF=320900 MemberID=24 </weight>
<weight id="1174" MUR="1.0" MUF="1.0" PDF="320925" > PDF=320900 MemberID=25 </weight>
<weight id="1175" MUR="1.0" MUF="1.0" PDF="320926" > PDF=320900 MemberID=26 </weight>
<weight id="1176" MUR="1.0" MUF="1.0" PDF="320927" > PDF=320900 MemberID=27 </weight>
<weight id="1177" MUR="1.0" MUF="1.0" PDF="320928" > PDF=320900 MemberID=28 </weight>
<weight id="1178" MUR="1.0" MUF="1.0" PDF="320929" > PDF=320900 MemberID=29 </weight>
<weight id="1179" MUR="1.0" MUF="1.0" PDF="320930" > PDF=320900 MemberID=30 </weight>
<weight id="1180" MUR="1.0" MUF="1.0" PDF="320931" > PDF=320900 MemberID=31 </weight>
<weight id="1181" MUR="1.0" MUF="1.0" PDF="320932" > PDF=320900 MemberID=32 </weight>
<weight id="1182" MUR="1.0" MUF="1.0" PDF="320933" > PDF=320900 MemberID=33 </weight>
<weight id="1183" MUR="1.0" MUF="1.0" PDF="320934" > PDF=320900 MemberID=34 </weight>
<weight id="1184" MUR="1.0" MUF="1.0" PDF="320935" > PDF=320900 MemberID=35 </weight>
<weight id="1185" MUR="1.0" MUF="1.0" PDF="320936" > PDF=320900 MemberID=36 </weight>
<weight id="1186" MUR="1.0" MUF="1.0" PDF="320937" > PDF=320900 MemberID=37 </weight>
<weight id="1187" MUR="1.0" MUF="1.0" PDF="320938" > PDF=320900 MemberID=38 </weight>
<weight id="1188" MUR="1.0" MUF="1.0" PDF="320939" > PDF=320900 MemberID=39 </weight>
<weight id="1189" MUR="1.0" MUF="1.0" PDF="320940" > PDF=320900 MemberID=40 </weight>
<weight id="1190" MUR="1.0" MUF="1.0" PDF="320941" > PDF=320900 MemberID=41 </weight>
<weight id="1191" MUR="1.0" MUF="1.0" PDF="320942" > PDF=320900 MemberID=42 </weight>
<weight id="1192" MUR="1.0" MUF="1.0" PDF="320943" > PDF=320900 MemberID=43 </weight>
<weight id="1193" MUR="1.0" MUF="1.0" PDF="320944" > PDF=320900 MemberID=44 </weight>
<weight id="1194" MUR="1.0" MUF="1.0" PDF="320945" > PDF=320900 MemberID=45 </weight>
<weight id="1195" MUR="1.0" MUF="1.0" PDF="320946" > PDF=320900 MemberID=46 </weight>
<weight id="1196" MUR="1.0" MUF="1.0" PDF="320947" > PDF=320900 MemberID=47 </weight>
<weight id="1197" MUR="1.0" MUF="1.0" PDF="320948" > PDF=320900 MemberID=48 </weight>
<weight id="1198" MUR="1.0" MUF="1.0" PDF="320949" > PDF=320900 MemberID=49 </weight>
<weight id="1199" MUR="1.0" MUF="1.0" PDF="320950" > PDF=320900 MemberID=50 </weight>
<weight id="1200" MUR="1.0" MUF="1.0" PDF="320951" > PDF=320900 MemberID=51 </weight>
<weight id="1201" MUR="1.0" MUF="1.0" PDF="320952" > PDF=320900 MemberID=52 </weight>
<weight id="1202" MUR="1.0" MUF="1.0" PDF="320953" > PDF=320900 MemberID=53 </weight>
<weight id="1203" MUR="1.0" MUF="1.0" PDF="320954" > PDF=320900 MemberID=54 </weight>
<weight id="1204" MUR="1.0" MUF="1.0" PDF="320955" > PDF=320900 MemberID=55 </weight>
<weight id="1205" MUR="1.0" MUF="1.0" PDF="320956" > PDF=320900 MemberID=56 </weight>
<weight id="1206" MUR="1.0" MUF="1.0" PDF="320957" > PDF=320900 MemberID=57 </weight>
<weight id="1207" MUR="1.0" MUF="1.0" PDF="320958" > PDF=320900 MemberID=58 </weight>
<weight id="1208" MUR="1.0" MUF="1.0" PDF="320959" > PDF=320900 MemberID=59 </weight>
<weight id="1209" MUR="1.0" MUF="1.0" PDF="320960" > PDF=320900 MemberID=60 </weight>
<weight id="1210" MUR="1.0" MUF="1.0" PDF="320961" > PDF=320900 MemberID=61 </weight>
<weight id="1211" MUR="1.0" MUF="1.0" PDF="320962" > PDF=320900 MemberID=62 </weight>
<weight id="1212" MUR="1.0" MUF="1.0" PDF="320963" > PDF=320900 MemberID=63 </weight>
<weight id="1213" MUR="1.0" MUF="1.0" PDF="320964" > PDF=320900 MemberID=64 </weight>
<weight id="1214" MUR="1.0" MUF="1.0" PDF="320965" > PDF=320900 MemberID=65 </weight>
<weight id="1215" MUR="1.0" MUF="1.0" PDF="320966" > PDF=320900 MemberID=66 </weight>
<weight id="1216" MUR="1.0" MUF="1.0" PDF="320967" > PDF=320900 MemberID=67 </weight>
<weight id="1217" MUR="1.0" MUF="1.0" PDF="320968" > PDF=320900 MemberID=68 </weight>
<weight id="1218" MUR="1.0" MUF="1.0" PDF="320969" > PDF=320900 MemberID=69 </weight>
<weight id="1219" MUR="1.0" MUF="1.0" PDF="320970" > PDF=320900 MemberID=70 </weight>
<weight id="1220" MUR="1.0" MUF="1.0" PDF="320971" > PDF=320900 MemberID=71 </weight>
<weight id="1221" MUR="1.0" MUF="1.0" PDF="320972" > PDF=320900 MemberID=72 </weight>
<weight id="1222" MUR="1.0" MUF="1.0" PDF="320973" > PDF=320900 MemberID=73 </weight>
<weight id="1223" MUR="1.0" MUF="1.0" PDF="320974" > PDF=320900 MemberID=74 </weight>
<weight id="1224" MUR="1.0" MUF="1.0" PDF="320975" > PDF=320900 MemberID=75 </weight>
<weight id="1225" MUR="1.0" MUF="1.0" PDF="320976" > PDF=320900 MemberID=76 </weight>
<weight id="1226" MUR="1.0" MUF="1.0" PDF="320977" > PDF=320900 MemberID=77 </weight>
<weight id="1227" MUR="1.0" MUF="1.0" PDF="320978" > PDF=320900 MemberID=78 </weight>
<weight id="1228" MUR="1.0" MUF="1.0" PDF="320979" > PDF=320900 MemberID=79 </weight>
<weight id="1229" MUR="1.0" MUF="1.0" PDF="320980" > PDF=320900 MemberID=80 </weight>
<weight id="1230" MUR="1.0" MUF="1.0" PDF="320981" > PDF=320900 MemberID=81 </weight>
<weight id="1231" MUR="1.0" MUF="1.0" PDF="320982" > PDF=320900 MemberID=82 </weight>
<weight id="1232" MUR="1.0" MUF="1.0" PDF="320983" > PDF=320900 MemberID=83 </weight>
<weight id="1233" MUR="1.0" MUF="1.0" PDF="320984" > PDF=320900 MemberID=84 </weight>
<weight id="1234" MUR="1.0" MUF="1.0" PDF="320985" > PDF=320900 MemberID=85 </weight>
<weight id="1235" MUR="1.0" MUF="1.0" PDF="320986" > PDF=320900 MemberID=86 </weight>
<weight id="1236" MUR="1.0" MUF="1.0" PDF="320987" > PDF=320900 MemberID=87 </weight>
<weight id="1237" MUR="1.0" MUF="1.0" PDF="320988" > PDF=320900 MemberID=88 </weight>
<weight id="1238" MUR="1.0" MUF="1.0" PDF="320989" > PDF=320900 MemberID=89 </weight>
<weight id="1239" MUR="1.0" MUF="1.0" PDF="320990" > PDF=320900 MemberID=90 </weight>
<weight id="1240" MUR="1.0" MUF="1.0" PDF="320991" > PDF=320900 MemberID=91 </weight>
<weight id="1241" MUR="1.0" MUF="1.0" PDF="320992" > PDF=320900 MemberID=92 </weight>
<weight id="1242" MUR="1.0" MUF="1.0" PDF="320993" > PDF=320900 MemberID=93 </weight>
<weight id="1243" MUR="1.0" MUF="1.0" PDF="320994" > PDF=320900 MemberID=94 </weight>
<weight id="1244" MUR="1.0" MUF="1.0" PDF="320995" > PDF=320900 MemberID=95 </weight>
<weight id="1245" MUR="1.0" MUF="1.0" PDF="320996" > PDF=320900 MemberID=96 </weight>
<weight id="1246" MUR="1.0" MUF="1.0" PDF="320997" > PDF=320900 MemberID=97 </weight>
<weight id="1247" MUR="1.0" MUF="1.0" PDF="320998" > PDF=320900 MemberID=98 </weight>
<weight id="1248" MUR="1.0" MUF="1.0" PDF="320999" > PDF=320900 MemberID=99 </weight>
<weight id="1249" MUR="1.0" MUF="1.0" PDF="321000" > PDF=320900 MemberID=100 </weight>
</weightgroup> # PDFSET -> PDFSET
<weightgroup name="CT10nlo_nf4" combine="unknown"> # 11082: CT10 NLO PDF fixed 4-flavour fits using the standard CTEQ PDF evolution but using the HOPPET alphas_s running solution. NEW CT12 grid type. Excluding the D0 Run-II W asymmetry data. mem=0 ; mem=0 ; NF4 high scale Q=m_Z=91.190 GeV; mem=1 ; NF4 low scale  Q=m_tau=1.778 GeV
<weight id="1250" MUR="1.0" MUF="1.0" PDF="11082" > PDF=11082 MemberID=0 </weight>
<weight id="1251" MUR="1.0" MUF="1.0" PDF="11083" > PDF=11082 MemberID=1 </weight>
</weightgroup> # PDFSET -> PDF
<weight id="1252" MUR="1.0" MUF="1.0" PDF="13091" > PDF=13091 MemberID=0 </weight>
<weight id="1253" MUR="1.0" MUF="1.0" PDF="13191" > PDF=13191 MemberID=0 </weight>
<weight id="1254" MUR="1.0" MUF="1.0" PDF="13202" > PDF=13202 MemberID=0 </weight>
<weightgroup name="MSTW2008lo68cl_nf4" combine="hessian"> # 23100: MSTW 2008 LO (68% C.L.) evolved with 4 flavours maximum.  This set has 41 member PDFs.  mem=0 ; central value; mem=1-40 ; 20 eigenvectors (+/- directions).  http://mstwpdf.hepforge.org
<weight id="1255" MUR="1.0" MUF="1.0" PDF="23100" > PDF=23100 MemberID=0 </weight>
<weight id="1256" MUR="1.0" MUF="1.0" PDF="23101" > PDF=23100 MemberID=1 </weight>
<weight id="1257" MUR="1.0" MUF="1.0" PDF="23102" > PDF=23100 MemberID=2 </weight>
<weight id="1258" MUR="1.0" MUF="1.0" PDF="23103" > PDF=23100 MemberID=3 </weight>
<weight id="1259" MUR="1.0" MUF="1.0" PDF="23104" > PDF=23100 MemberID=4 </weight>
<weight id="1260" MUR="1.0" MUF="1.0" PDF="23105" > PDF=23100 MemberID=5 </weight>
<weight id="1261" MUR="1.0" MUF="1.0" PDF="23106" > PDF=23100 MemberID=6 </weight>
<weight id="1262" MUR="1.0" MUF="1.0" PDF="23107" > PDF=23100 MemberID=7 </weight>
<weight id="1263" MUR="1.0" MUF="1.0" PDF="23108" > PDF=23100 MemberID=8 </weight>
<weight id="1264" MUR="1.0" MUF="1.0" PDF="23109" > PDF=23100 MemberID=9 </weight>
<weight id="1265" MUR="1.0" MUF="1.0" PDF="23110" > PDF=23100 MemberID=10 </weight>
<weight id="1266" MUR="1.0" MUF="1.0" PDF="23111" > PDF=23100 MemberID=11 </weight>
<weight id="1267" MUR="1.0" MUF="1.0" PDF="23112" > PDF=23100 MemberID=12 </weight>
<weight id="1268" MUR="1.0" MUF="1.0" PDF="23113" > PDF=23100 MemberID=13 </weight>
<weight id="1269" MUR="1.0" MUF="1.0" PDF="23114" > PDF=23100 MemberID=14 </weight>
<weight id="1270" MUR="1.0" MUF="1.0" PDF="23115" > PDF=23100 MemberID=15 </weight>
<weight id="1271" MUR="1.0" MUF="1.0" PDF="23116" > PDF=23100 MemberID=16 </weight>
<weight id="1272" MUR="1.0" MUF="1.0" PDF="23117" > PDF=23100 MemberID=17 </weight>
<weight id="1273" MUR="1.0" MUF="1.0" PDF="23118" > PDF=23100 MemberID=18 </weight>
<weight id="1274" MUR="1.0" MUF="1.0" PDF="23119" > PDF=23100 MemberID=19 </weight>
<weight id="1275" MUR="1.0" MUF="1.0" PDF="23120" > PDF=23100 MemberID=20 </weight>
<weight id="1276" MUR="1.0" MUF="1.0" PDF="23121" > PDF=23100 MemberID=21 </weight>
<weight id="1277" MUR="1.0" MUF="1.0" PDF="23122" > PDF=23100 MemberID=22 </weight>
<weight id="1278" MUR="1.0" MUF="1.0" PDF="23123" > PDF=23100 MemberID=23 </weight>
<weight id="1279" MUR="1.0" MUF="1.0" PDF="23124" > PDF=23100 MemberID=24 </weight>
<weight id="1280" MUR="1.0" MUF="1.0" PDF="23125" > PDF=23100 MemberID=25 </weight>
<weight id="1281" MUR="1.0" MUF="1.0" PDF="23126" > PDF=23100 MemberID=26 </weight>
<weight id="1282" MUR="1.0" MUF="1.0" PDF="23127" > PDF=23100 MemberID=27 </weight>
<weight id="1283" MUR="1.0" MUF="1.0" PDF="23128" > PDF=23100 MemberID=28 </weight>
<weight id="1284" MUR="1.0" MUF="1.0" PDF="23129" > PDF=23100 MemberID=29 </weight>
<weight id="1285" MUR="1.0" MUF="1.0" PDF="23130" > PDF=23100 MemberID=30 </weight>
<weight id="1286" MUR="1.0" MUF="1.0" PDF="23131" > PDF=23100 MemberID=31 </weight>
<weight id="1287" MUR="1.0" MUF="1.0" PDF="23132" > PDF=23100 MemberID=32 </weight>
<weight id="1288" MUR="1.0" MUF="1.0" PDF="23133" > PDF=23100 MemberID=33 </weight>
<weight id="1289" MUR="1.0" MUF="1.0" PDF="23134" > PDF=23100 MemberID=34 </weight>
<weight id="1290" MUR="1.0" MUF="1.0" PDF="23135" > PDF=23100 MemberID=35 </weight>
<weight id="1291" MUR="1.0" MUF="1.0" PDF="23136" > PDF=23100 MemberID=36 </weight>
<weight id="1292" MUR="1.0" MUF="1.0" PDF="23137" > PDF=23100 MemberID=37 </weight>
<weight id="1293" MUR="1.0" MUF="1.0" PDF="23138" > PDF=23100 MemberID=38 </weight>
<weight id="1294" MUR="1.0" MUF="1.0" PDF="23139" > PDF=23100 MemberID=39 </weight>
<weight id="1295" MUR="1.0" MUF="1.0" PDF="23140" > PDF=23100 MemberID=40 </weight>
</weightgroup> # PDFSET -> PDFSET
<weightgroup name="MSTW2008nlo68cl_nf4" combine="hessian"> # 23300: MSTW 2008 NLO (68% C.L.) evolved with 4 flavours maximum.  This set has 41 member PDFs.  mem=0 ; central value; mem=1-40 ; 20 eigenvectors (+/- directions).  http://mstwpdf.hepforge.org
<weight id="1296" MUR="1.0" MUF="1.0" PDF="23300" > PDF=23300 MemberID=0 </weight>
<weight id="1297" MUR="1.0" MUF="1.0" PDF="23301" > PDF=23300 MemberID=1 </weight>
<weight id="1298" MUR="1.0" MUF="1.0" PDF="23302" > PDF=23300 MemberID=2 </weight>
<weight id="1299" MUR="1.0" MUF="1.0" PDF="23303" > PDF=23300 MemberID=3 </weight>
<weight id="1300" MUR="1.0" MUF="1.0" PDF="23304" > PDF=23300 MemberID=4 </weight>
<weight id="1301" MUR="1.0" MUF="1.0" PDF="23305" > PDF=23300 MemberID=5 </weight>
<weight id="1302" MUR="1.0" MUF="1.0" PDF="23306" > PDF=23300 MemberID=6 </weight>
<weight id="1303" MUR="1.0" MUF="1.0" PDF="23307" > PDF=23300 MemberID=7 </weight>
<weight id="1304" MUR="1.0" MUF="1.0" PDF="23308" > PDF=23300 MemberID=8 </weight>
<weight id="1305" MUR="1.0" MUF="1.0" PDF="23309" > PDF=23300 MemberID=9 </weight>
<weight id="1306" MUR="1.0" MUF="1.0" PDF="23310" > PDF=23300 MemberID=10 </weight>
<weight id="1307" MUR="1.0" MUF="1.0" PDF="23311" > PDF=23300 MemberID=11 </weight>
<weight id="1308" MUR="1.0" MUF="1.0" PDF="23312" > PDF=23300 MemberID=12 </weight>
<weight id="1309" MUR="1.0" MUF="1.0" PDF="23313" > PDF=23300 MemberID=13 </weight>
<weight id="1310" MUR="1.0" MUF="1.0" PDF="23314" > PDF=23300 MemberID=14 </weight>
<weight id="1311" MUR="1.0" MUF="1.0" PDF="23315" > PDF=23300 MemberID=15 </weight>
<weight id="1312" MUR="1.0" MUF="1.0" PDF="23316" > PDF=23300 MemberID=16 </weight>
<weight id="1313" MUR="1.0" MUF="1.0" PDF="23317" > PDF=23300 MemberID=17 </weight>
<weight id="1314" MUR="1.0" MUF="1.0" PDF="23318" > PDF=23300 MemberID=18 </weight>
<weight id="1315" MUR="1.0" MUF="1.0" PDF="23319" > PDF=23300 MemberID=19 </weight>
<weight id="1316" MUR="1.0" MUF="1.0" PDF="23320" > PDF=23300 MemberID=20 </weight>
<weight id="1317" MUR="1.0" MUF="1.0" PDF="23321" > PDF=23300 MemberID=21 </weight>
<weight id="1318" MUR="1.0" MUF="1.0" PDF="23322" > PDF=23300 MemberID=22 </weight>
<weight id="1319" MUR="1.0" MUF="1.0" PDF="23323" > PDF=23300 MemberID=23 </weight>
<weight id="1320" MUR="1.0" MUF="1.0" PDF="23324" > PDF=23300 MemberID=24 </weight>
<weight id="1321" MUR="1.0" MUF="1.0" PDF="23325" > PDF=23300 MemberID=25 </weight>
<weight id="1322" MUR="1.0" MUF="1.0" PDF="23326" > PDF=23300 MemberID=26 </weight>
<weight id="1323" MUR="1.0" MUF="1.0" PDF="23327" > PDF=23300 MemberID=27 </weight>
<weight id="1324" MUR="1.0" MUF="1.0" PDF="23328" > PDF=23300 MemberID=28 </weight>
<weight id="1325" MUR="1.0" MUF="1.0" PDF="23329" > PDF=23300 MemberID=29 </weight>
<weight id="1326" MUR="1.0" MUF="1.0" PDF="23330" > PDF=23300 MemberID=30 </weight>
<weight id="1327" MUR="1.0" MUF="1.0" PDF="23331" > PDF=23300 MemberID=31 </weight>
<weight id="1328" MUR="1.0" MUF="1.0" PDF="23332" > PDF=23300 MemberID=32 </weight>
<weight id="1329" MUR="1.0" MUF="1.0" PDF="23333" > PDF=23300 MemberID=33 </weight>
<weight id="1330" MUR="1.0" MUF="1.0" PDF="23334" > PDF=23300 MemberID=34 </weight>
<weight id="1331" MUR="1.0" MUF="1.0" PDF="23335" > PDF=23300 MemberID=35 </weight>
<weight id="1332" MUR="1.0" MUF="1.0" PDF="23336" > PDF=23300 MemberID=36 </weight>
<weight id="1333" MUR="1.0" MUF="1.0" PDF="23337" > PDF=23300 MemberID=37 </weight>
<weight id="1334" MUR="1.0" MUF="1.0" PDF="23338" > PDF=23300 MemberID=38 </weight>
<weight id="1335" MUR="1.0" MUF="1.0" PDF="23339" > PDF=23300 MemberID=39 </weight>
<weight id="1336" MUR="1.0" MUF="1.0" PDF="23340" > PDF=23300 MemberID=40 </weight>
</weightgroup> # PDFSET -> PDFSET
<weightgroup name="MSTW2008nlo_mbrange_nf4" combine="unknown"> # 23490: MSTW 2008 NLO (fits for range of m_b values, evolve with 4 flavours maximum).  This set has 7 member PDFs.  mem=0 ; default m_b = 4.75 GeV; mem=1-6 ; m_b = 4.00, 4.25, 4.50, 5.00, 5.25, 5.50 GeV.  http://mstwpdf.hepforge.org
<weight id="1337" MUR="1.0" MUF="1.0" PDF="23490" > PDF=23490 MemberID=0 </weight>
<weight id="1338" MUR="1.0" MUF="1.0" PDF="23491" > PDF=23490 MemberID=1 </weight>
<weight id="1339" MUR="1.0" MUF="1.0" PDF="23492" > PDF=23490 MemberID=2 </weight>
<weight id="1340" MUR="1.0" MUF="1.0" PDF="23493" > PDF=23490 MemberID=3 </weight>
<weight id="1341" MUR="1.0" MUF="1.0" PDF="23494" > PDF=23490 MemberID=4 </weight>
<weight id="1342" MUR="1.0" MUF="1.0" PDF="23495" > PDF=23490 MemberID=5 </weight>
<weight id="1343" MUR="1.0" MUF="1.0" PDF="23496" > PDF=23490 MemberID=6 </weight>
</weightgroup> # PDFSET -> PDFSET
<weightgroup name="MSTW2008nnlo68cl_nf4" combine="hessian"> # 23600: MSTW 2008 NNLO (68% C.L.) evolved with 4 flavours maximum.  This set has 41 member PDFs.  mem=0 ; central value; mem=1-40 ; 20 eigenvectors (+/- directions).  http://mstwpdf.hepforge.org
<weight id="1344" MUR="1.0" MUF="1.0" PDF="23600" > PDF=23600 MemberID=0 </weight>
<weight id="1345" MUR="1.0" MUF="1.0" PDF="23601" > PDF=23600 MemberID=1 </weight>
<weight id="1346" MUR="1.0" MUF="1.0" PDF="23602" > PDF=23600 MemberID=2 </weight>
<weight id="1347" MUR="1.0" MUF="1.0" PDF="23603" > PDF=23600 MemberID=3 </weight>
<weight id="1348" MUR="1.0" MUF="1.0" PDF="23604" > PDF=23600 MemberID=4 </weight>
<weight id="1349" MUR="1.0" MUF="1.0" PDF="23605" > PDF=23600 MemberID=5 </weight>
<weight id="1350" MUR="1.0" MUF="1.0" PDF="23606" > PDF=23600 MemberID=6 </weight>
<weight id="1351" MUR="1.0" MUF="1.0" PDF="23607" > PDF=23600 MemberID=7 </weight>
<weight id="1352" MUR="1.0" MUF="1.0" PDF="23608" > PDF=23600 MemberID=8 </weight>
<weight id="1353" MUR="1.0" MUF="1.0" PDF="23609" > PDF=23600 MemberID=9 </weight>
<weight id="1354" MUR="1.0" MUF="1.0" PDF="23610" > PDF=23600 MemberID=10 </weight>
<weight id="1355" MUR="1.0" MUF="1.0" PDF="23611" > PDF=23600 MemberID=11 </weight>
<weight id="1356" MUR="1.0" MUF="1.0" PDF="23612" > PDF=23600 MemberID=12 </weight>
<weight id="1357" MUR="1.0" MUF="1.0" PDF="23613" > PDF=23600 MemberID=13 </weight>
<weight id="1358" MUR="1.0" MUF="1.0" PDF="23614" > PDF=23600 MemberID=14 </weight>
<weight id="1359" MUR="1.0" MUF="1.0" PDF="23615" > PDF=23600 MemberID=15 </weight>
<weight id="1360" MUR="1.0" MUF="1.0" PDF="23616" > PDF=23600 MemberID=16 </weight>
<weight id="1361" MUR="1.0" MUF="1.0" PDF="23617" > PDF=23600 MemberID=17 </weight>
<weight id="1362" MUR="1.0" MUF="1.0" PDF="23618" > PDF=23600 MemberID=18 </weight>
<weight id="1363" MUR="1.0" MUF="1.0" PDF="23619" > PDF=23600 MemberID=19 </weight>
<weight id="1364" MUR="1.0" MUF="1.0" PDF="23620" > PDF=23600 MemberID=20 </weight>
<weight id="1365" MUR="1.0" MUF="1.0" PDF="23621" > PDF=23600 MemberID=21 </weight>
<weight id="1366" MUR="1.0" MUF="1.0" PDF="23622" > PDF=23600 MemberID=22 </weight>
<weight id="1367" MUR="1.0" MUF="1.0" PDF="23623" > PDF=23600 MemberID=23 </weight>
<weight id="1368" MUR="1.0" MUF="1.0" PDF="23624" > PDF=23600 MemberID=24 </weight>
<weight id="1369" MUR="1.0" MUF="1.0" PDF="23625" > PDF=23600 MemberID=25 </weight>
<weight id="1370" MUR="1.0" MUF="1.0" PDF="23626" > PDF=23600 MemberID=26 </weight>
<weight id="1371" MUR="1.0" MUF="1.0" PDF="23627" > PDF=23600 MemberID=27 </weight>
<weight id="1372" MUR="1.0" MUF="1.0" PDF="23628" > PDF=23600 MemberID=28 </weight>
<weight id="1373" MUR="1.0" MUF="1.0" PDF="23629" > PDF=23600 MemberID=29 </weight>
<weight id="1374" MUR="1.0" MUF="1.0" PDF="23630" > PDF=23600 MemberID=30 </weight>
<weight id="1375" MUR="1.0" MUF="1.0" PDF="23631" > PDF=23600 MemberID=31 </weight>
<weight id="1376" MUR="1.0" MUF="1.0" PDF="23632" > PDF=23600 MemberID=32 </weight>
<weight id="1377" MUR="1.0" MUF="1.0" PDF="23633" > PDF=23600 MemberID=33 </weight>
<weight id="1378" MUR="1.0" MUF="1.0" PDF="23634" > PDF=23600 MemberID=34 </weight>
<weight id="1379" MUR="1.0" MUF="1.0" PDF="23635" > PDF=23600 MemberID=35 </weight>
<weight id="1380" MUR="1.0" MUF="1.0" PDF="23636" > PDF=23600 MemberID=36 </weight>
<weight id="1381" MUR="1.0" MUF="1.0" PDF="23637" > PDF=23600 MemberID=37 </weight>
<weight id="1382" MUR="1.0" MUF="1.0" PDF="23638" > PDF=23600 MemberID=38 </weight>
<weight id="1383" MUR="1.0" MUF="1.0" PDF="23639" > PDF=23600 MemberID=39 </weight>
<weight id="1384" MUR="1.0" MUF="1.0" PDF="23640" > PDF=23600 MemberID=40 </weight>
</weightgroup> # PDFSET -> PDFSET
<weightgroup name="MSTW2008nnlo_mbrange_nf4" combine="unknown"> # 23790: MSTW 2008 NNLO (fits for range of m_b values, evolve with 4 flavours maximum).  This set has 7 member PDFs.  mem=0 ; default m_b = 4.75 GeV; mem=1-6 ; m_b = 4.00, 4.25, 4.50, 5.00, 5.25, 5.50 GeV.  http://mstwpdf.hepforge.org
<weight id="1385" MUR="1.0" MUF="1.0" PDF="23790" > PDF=23790 MemberID=0 </weight>
<weight id="1386" MUR="1.0" MUF="1.0" PDF="23791" > PDF=23790 MemberID=1 </weight>
<weight id="1387" MUR="1.0" MUF="1.0" PDF="23792" > PDF=23790 MemberID=2 </weight>
<weight id="1388" MUR="1.0" MUF="1.0" PDF="23793" > PDF=23790 MemberID=3 </weight>
<weight id="1389" MUR="1.0" MUF="1.0" PDF="23794" > PDF=23790 MemberID=4 </weight>
<weight id="1390" MUR="1.0" MUF="1.0" PDF="23795" > PDF=23790 MemberID=5 </weight>
<weight id="1391" MUR="1.0" MUF="1.0" PDF="23796" > PDF=23790 MemberID=6 </weight>
</weightgroup> # PDFSET -> PDFSET
<weightgroup name="MMHT2014nlo68cl_nf4" combine="hessian"> # 25410: MMHT 2014 NLO (68% C.L.): evolve with 4 flavours maximum. This set has 51 member PDFs. mem=0 --.gt. central value; mem=1-50 --.gt. 20 eigenvector sets (+/- directions). Website: www.hep.ucl.ac.uk/mmht
<weight id="1392" MUR="1.0" MUF="1.0" PDF="25410" > PDF=25410 MemberID=0 </weight>
<weight id="1393" MUR="1.0" MUF="1.0" PDF="25411" > PDF=25410 MemberID=1 </weight>
<weight id="1394" MUR="1.0" MUF="1.0" PDF="25412" > PDF=25410 MemberID=2 </weight>
<weight id="1395" MUR="1.0" MUF="1.0" PDF="25413" > PDF=25410 MemberID=3 </weight>
<weight id="1396" MUR="1.0" MUF="1.0" PDF="25414" > PDF=25410 MemberID=4 </weight>
<weight id="1397" MUR="1.0" MUF="1.0" PDF="25415" > PDF=25410 MemberID=5 </weight>
<weight id="1398" MUR="1.0" MUF="1.0" PDF="25416" > PDF=25410 MemberID=6 </weight>
<weight id="1399" MUR="1.0" MUF="1.0" PDF="25417" > PDF=25410 MemberID=7 </weight>
<weight id="1400" MUR="1.0" MUF="1.0" PDF="25418" > PDF=25410 MemberID=8 </weight>
<weight id="1401" MUR="1.0" MUF="1.0" PDF="25419" > PDF=25410 MemberID=9 </weight>
<weight id="1402" MUR="1.0" MUF="1.0" PDF="25420" > PDF=25410 MemberID=10 </weight>
<weight id="1403" MUR="1.0" MUF="1.0" PDF="25421" > PDF=25410 MemberID=11 </weight>
<weight id="1404" MUR="1.0" MUF="1.0" PDF="25422" > PDF=25410 MemberID=12 </weight>
<weight id="1405" MUR="1.0" MUF="1.0" PDF="25423" > PDF=25410 MemberID=13 </weight>
<weight id="1406" MUR="1.0" MUF="1.0" PDF="25424" > PDF=25410 MemberID=14 </weight>
<weight id="1407" MUR="1.0" MUF="1.0" PDF="25425" > PDF=25410 MemberID=15 </weight>
<weight id="1408" MUR="1.0" MUF="1.0" PDF="25426" > PDF=25410 MemberID=16 </weight>
<weight id="1409" MUR="1.0" MUF="1.0" PDF="25427" > PDF=25410 MemberID=17 </weight>
<weight id="1410" MUR="1.0" MUF="1.0" PDF="25428" > PDF=25410 MemberID=18 </weight>
<weight id="1411" MUR="1.0" MUF="1.0" PDF="25429" > PDF=25410 MemberID=19 </weight>
<weight id="1412" MUR="1.0" MUF="1.0" PDF="25430" > PDF=25410 MemberID=20 </weight>
<weight id="1413" MUR="1.0" MUF="1.0" PDF="25431" > PDF=25410 MemberID=21 </weight>
<weight id="1414" MUR="1.0" MUF="1.0" PDF="25432" > PDF=25410 MemberID=22 </weight>
<weight id="1415" MUR="1.0" MUF="1.0" PDF="25433" > PDF=25410 MemberID=23 </weight>
<weight id="1416" MUR="1.0" MUF="1.0" PDF="25434" > PDF=25410 MemberID=24 </weight>
<weight id="1417" MUR="1.0" MUF="1.0" PDF="25435" > PDF=25410 MemberID=25 </weight>
<weight id="1418" MUR="1.0" MUF="1.0" PDF="25436" > PDF=25410 MemberID=26 </weight>
<weight id="1419" MUR="1.0" MUF="1.0" PDF="25437" > PDF=25410 MemberID=27 </weight>
<weight id="1420" MUR="1.0" MUF="1.0" PDF="25438" > PDF=25410 MemberID=28 </weight>
<weight id="1421" MUR="1.0" MUF="1.0" PDF="25439" > PDF=25410 MemberID=29 </weight>
<weight id="1422" MUR="1.0" MUF="1.0" PDF="25440" > PDF=25410 MemberID=30 </weight>
<weight id="1423" MUR="1.0" MUF="1.0" PDF="25441" > PDF=25410 MemberID=31 </weight>
<weight id="1424" MUR="1.0" MUF="1.0" PDF="25442" > PDF=25410 MemberID=32 </weight>
<weight id="1425" MUR="1.0" MUF="1.0" PDF="25443" > PDF=25410 MemberID=33 </weight>
<weight id="1426" MUR="1.0" MUF="1.0" PDF="25444" > PDF=25410 MemberID=34 </weight>
<weight id="1427" MUR="1.0" MUF="1.0" PDF="25445" > PDF=25410 MemberID=35 </weight>
<weight id="1428" MUR="1.0" MUF="1.0" PDF="25446" > PDF=25410 MemberID=36 </weight>
<weight id="1429" MUR="1.0" MUF="1.0" PDF="25447" > PDF=25410 MemberID=37 </weight>
<weight id="1430" MUR="1.0" MUF="1.0" PDF="25448" > PDF=25410 MemberID=38 </weight>
<weight id="1431" MUR="1.0" MUF="1.0" PDF="25449" > PDF=25410 MemberID=39 </weight>
<weight id="1432" MUR="1.0" MUF="1.0" PDF="25450" > PDF=25410 MemberID=40 </weight>
<weight id="1433" MUR="1.0" MUF="1.0" PDF="25451" > PDF=25410 MemberID=41 </weight>
<weight id="1434" MUR="1.0" MUF="1.0" PDF="25452" > PDF=25410 MemberID=42 </weight>
<weight id="1435" MUR="1.0" MUF="1.0" PDF="25453" > PDF=25410 MemberID=43 </weight>
<weight id="1436" MUR="1.0" MUF="1.0" PDF="25454" > PDF=25410 MemberID=44 </weight>
<weight id="1437" MUR="1.0" MUF="1.0" PDF="25455" > PDF=25410 MemberID=45 </weight>
<weight id="1438" MUR="1.0" MUF="1.0" PDF="25456" > PDF=25410 MemberID=46 </weight>
<weight id="1439" MUR="1.0" MUF="1.0" PDF="25457" > PDF=25410 MemberID=47 </weight>
<weight id="1440" MUR="1.0" MUF="1.0" PDF="25458" > PDF=25410 MemberID=48 </weight>
<weight id="1441" MUR="1.0" MUF="1.0" PDF="25459" > PDF=25410 MemberID=49 </weight>
<weight id="1442" MUR="1.0" MUF="1.0" PDF="25460" > PDF=25410 MemberID=50 </weight>
</weightgroup> # PDFSET -> PDFSET
<weightgroup name="MMHT2014nlo68clas118_nf4" combine="hessian"> # 25510: MMHT 2014 NLO (68% C.L.): evolve with 4 flavours maximum. This set has 51 member PDFs. mem=0 --.gt. central value; mem=1-50 --.gt. 20 eigenvector sets (+/- directions). Website: www.hep.ucl.ac.uk/mmht
<weight id="1443" MUR="1.0" MUF="1.0" PDF="25510" > PDF=25510 MemberID=0 </weight>
<weight id="1444" MUR="1.0" MUF="1.0" PDF="25511" > PDF=25510 MemberID=1 </weight>
<weight id="1445" MUR="1.0" MUF="1.0" PDF="25512" > PDF=25510 MemberID=2 </weight>
<weight id="1446" MUR="1.0" MUF="1.0" PDF="25513" > PDF=25510 MemberID=3 </weight>
<weight id="1447" MUR="1.0" MUF="1.0" PDF="25514" > PDF=25510 MemberID=4 </weight>
<weight id="1448" MUR="1.0" MUF="1.0" PDF="25515" > PDF=25510 MemberID=5 </weight>
<weight id="1449" MUR="1.0" MUF="1.0" PDF="25516" > PDF=25510 MemberID=6 </weight>
<weight id="1450" MUR="1.0" MUF="1.0" PDF="25517" > PDF=25510 MemberID=7 </weight>
<weight id="1451" MUR="1.0" MUF="1.0" PDF="25518" > PDF=25510 MemberID=8 </weight>
<weight id="1452" MUR="1.0" MUF="1.0" PDF="25519" > PDF=25510 MemberID=9 </weight>
<weight id="1453" MUR="1.0" MUF="1.0" PDF="25520" > PDF=25510 MemberID=10 </weight>
<weight id="1454" MUR="1.0" MUF="1.0" PDF="25521" > PDF=25510 MemberID=11 </weight>
<weight id="1455" MUR="1.0" MUF="1.0" PDF="25522" > PDF=25510 MemberID=12 </weight>
<weight id="1456" MUR="1.0" MUF="1.0" PDF="25523" > PDF=25510 MemberID=13 </weight>
<weight id="1457" MUR="1.0" MUF="1.0" PDF="25524" > PDF=25510 MemberID=14 </weight>
<weight id="1458" MUR="1.0" MUF="1.0" PDF="25525" > PDF=25510 MemberID=15 </weight>
<weight id="1459" MUR="1.0" MUF="1.0" PDF="25526" > PDF=25510 MemberID=16 </weight>
<weight id="1460" MUR="1.0" MUF="1.0" PDF="25527" > PDF=25510 MemberID=17 </weight>
<weight id="1461" MUR="1.0" MUF="1.0" PDF="25528" > PDF=25510 MemberID=18 </weight>
<weight id="1462" MUR="1.0" MUF="1.0" PDF="25529" > PDF=25510 MemberID=19 </weight>
<weight id="1463" MUR="1.0" MUF="1.0" PDF="25530" > PDF=25510 MemberID=20 </weight>
<weight id="1464" MUR="1.0" MUF="1.0" PDF="25531" > PDF=25510 MemberID=21 </weight>
<weight id="1465" MUR="1.0" MUF="1.0" PDF="25532" > PDF=25510 MemberID=22 </weight>
<weight id="1466" MUR="1.0" MUF="1.0" PDF="25533" > PDF=25510 MemberID=23 </weight>
<weight id="1467" MUR="1.0" MUF="1.0" PDF="25534" > PDF=25510 MemberID=24 </weight>
<weight id="1468" MUR="1.0" MUF="1.0" PDF="25535" > PDF=25510 MemberID=25 </weight>
<weight id="1469" MUR="1.0" MUF="1.0" PDF="25536" > PDF=25510 MemberID=26 </weight>
<weight id="1470" MUR="1.0" MUF="1.0" PDF="25537" > PDF=25510 MemberID=27 </weight>
<weight id="1471" MUR="1.0" MUF="1.0" PDF="25538" > PDF=25510 MemberID=28 </weight>
<weight id="1472" MUR="1.0" MUF="1.0" PDF="25539" > PDF=25510 MemberID=29 </weight>
<weight id="1473" MUR="1.0" MUF="1.0" PDF="25540" > PDF=25510 MemberID=30 </weight>
<weight id="1474" MUR="1.0" MUF="1.0" PDF="25541" > PDF=25510 MemberID=31 </weight>
<weight id="1475" MUR="1.0" MUF="1.0" PDF="25542" > PDF=25510 MemberID=32 </weight>
<weight id="1476" MUR="1.0" MUF="1.0" PDF="25543" > PDF=25510 MemberID=33 </weight>
<weight id="1477" MUR="1.0" MUF="1.0" PDF="25544" > PDF=25510 MemberID=34 </weight>
<weight id="1478" MUR="1.0" MUF="1.0" PDF="25545" > PDF=25510 MemberID=35 </weight>
<weight id="1479" MUR="1.0" MUF="1.0" PDF="25546" > PDF=25510 MemberID=36 </weight>
<weight id="1480" MUR="1.0" MUF="1.0" PDF="25547" > PDF=25510 MemberID=37 </weight>
<weight id="1481" MUR="1.0" MUF="1.0" PDF="25548" > PDF=25510 MemberID=38 </weight>
<weight id="1482" MUR="1.0" MUF="1.0" PDF="25549" > PDF=25510 MemberID=39 </weight>
<weight id="1483" MUR="1.0" MUF="1.0" PDF="25550" > PDF=25510 MemberID=40 </weight>
<weight id="1484" MUR="1.0" MUF="1.0" PDF="25551" > PDF=25510 MemberID=41 </weight>
<weight id="1485" MUR="1.0" MUF="1.0" PDF="25552" > PDF=25510 MemberID=42 </weight>
<weight id="1486" MUR="1.0" MUF="1.0" PDF="25553" > PDF=25510 MemberID=43 </weight>
<weight id="1487" MUR="1.0" MUF="1.0" PDF="25554" > PDF=25510 MemberID=44 </weight>
<weight id="1488" MUR="1.0" MUF="1.0" PDF="25555" > PDF=25510 MemberID=45 </weight>
<weight id="1489" MUR="1.0" MUF="1.0" PDF="25556" > PDF=25510 MemberID=46 </weight>
<weight id="1490" MUR="1.0" MUF="1.0" PDF="25557" > PDF=25510 MemberID=47 </weight>
<weight id="1491" MUR="1.0" MUF="1.0" PDF="25558" > PDF=25510 MemberID=48 </weight>
<weight id="1492" MUR="1.0" MUF="1.0" PDF="25559" > PDF=25510 MemberID=49 </weight>
<weight id="1493" MUR="1.0" MUF="1.0" PDF="25560" > PDF=25510 MemberID=50 </weight>
</weightgroup> # PDFSET -> PDFSET
<weightgroup name="MMHT2014nlo_asmzsmallrange_nf4" combine="unknown"> # 25570: MMHT 2014 NLO (fits for range of alpha_S values, evolve with 4 flavours maximum). This set has 5 member PDFs. mem=0 --.gt. best-fit alpha_S(M_Z) = 0.120; mem=1-4 --.gt. alpha_S(M_Z) = 0.117,...,0.121. Website: www.hep.ucl.ac.uk/mmht
<weight id="1494" MUR="1.0" MUF="1.0" PDF="25570" > PDF=25570 MemberID=0 </weight>
<weight id="1495" MUR="1.0" MUF="1.0" PDF="25571" > PDF=25570 MemberID=1 </weight>
<weight id="1496" MUR="1.0" MUF="1.0" PDF="25572" > PDF=25570 MemberID=2 </weight>
<weight id="1497" MUR="1.0" MUF="1.0" PDF="25573" > PDF=25570 MemberID=3 </weight>
<weight id="1498" MUR="1.0" MUF="1.0" PDF="25574" > PDF=25570 MemberID=4 </weight>
</weightgroup> # PDFSET -> PDFSET
<weightgroup name="MMHT2014nlo_mcrange_nf4" combine="unknown"> # 25605: MMHT 2014 NLO (range of mc, evolve with 4 flavours maximum). This set has 9 member PDFs. mem=0 --.gt. default mc = 1.40 GeV; mem=1-8 --.gt. mc = 1.15 - 1.55 GeV in steps of 0.05 GeV. Website: www.hep.ucl.ac.uk/mmht
<weight id="1499" MUR="1.0" MUF="1.0" PDF="25605" > PDF=25605 MemberID=0 </weight>
<weight id="1500" MUR="1.0" MUF="1.0" PDF="25606" > PDF=25605 MemberID=1 </weight>
<weight id="1501" MUR="1.0" MUF="1.0" PDF="25607" > PDF=25605 MemberID=2 </weight>
<weight id="1502" MUR="1.0" MUF="1.0" PDF="25608" > PDF=25605 MemberID=3 </weight>
<weight id="1503" MUR="1.0" MUF="1.0" PDF="25609" > PDF=25605 MemberID=4 </weight>
<weight id="1504" MUR="1.0" MUF="1.0" PDF="25610" > PDF=25605 MemberID=5 </weight>
<weight id="1505" MUR="1.0" MUF="1.0" PDF="25611" > PDF=25605 MemberID=6 </weight>
<weight id="1506" MUR="1.0" MUF="1.0" PDF="25612" > PDF=25605 MemberID=7 </weight>
<weight id="1507" MUR="1.0" MUF="1.0" PDF="25613" > PDF=25605 MemberID=8 </weight>
</weightgroup> # PDFSET -> PDFSET
<weightgroup name="MMHT2014nlo_mbrange_nf4" combine="unknown"> # 25620: MMHT 2014 NLO (range of mb, evolve with 4 flavours maximum). This set has 5 member PDFs. mem=0 --.gt. default mb = 4.75 GeV; mem=1-4 --.gt. mb = 4.25 - 5.25 GeV in steps of 0.25 GeV. Website: www.hep.ucl.ac.uk/mmht
<weight id="1508" MUR="1.0" MUF="1.0" PDF="25620" > PDF=25620 MemberID=0 </weight>
<weight id="1509" MUR="1.0" MUF="1.0" PDF="25621" > PDF=25620 MemberID=1 </weight>
<weight id="1510" MUR="1.0" MUF="1.0" PDF="25622" > PDF=25620 MemberID=2 </weight>
<weight id="1511" MUR="1.0" MUF="1.0" PDF="25623" > PDF=25620 MemberID=3 </weight>
<weight id="1512" MUR="1.0" MUF="1.0" PDF="25624" > PDF=25620 MemberID=4 </weight>
</weightgroup> # PDFSET -> PDFSET
<weightgroup name="MMHT2014nnlo68cl_nf4" combine="hessian"> # 25710: MMHT 2014 NNLO (68% C.L.): evolve with 4 flavours maximum. This set has 51 member PDFs. mem=0 --.gt. central value; mem=1-50 --.gt. 20 eigenvector sets (+/- directions). Website: www.hep.ucl.ac.uk/mmht
<weight id="1513" MUR="1.0" MUF="1.0" PDF="25710" > PDF=25710 MemberID=0 </weight>
<weight id="1514" MUR="1.0" MUF="1.0" PDF="25711" > PDF=25710 MemberID=1 </weight>
<weight id="1515" MUR="1.0" MUF="1.0" PDF="25712" > PDF=25710 MemberID=2 </weight>
<weight id="1516" MUR="1.0" MUF="1.0" PDF="25713" > PDF=25710 MemberID=3 </weight>
<weight id="1517" MUR="1.0" MUF="1.0" PDF="25714" > PDF=25710 MemberID=4 </weight>
<weight id="1518" MUR="1.0" MUF="1.0" PDF="25715" > PDF=25710 MemberID=5 </weight>
<weight id="1519" MUR="1.0" MUF="1.0" PDF="25716" > PDF=25710 MemberID=6 </weight>
<weight id="1520" MUR="1.0" MUF="1.0" PDF="25717" > PDF=25710 MemberID=7 </weight>
<weight id="1521" MUR="1.0" MUF="1.0" PDF="25718" > PDF=25710 MemberID=8 </weight>
<weight id="1522" MUR="1.0" MUF="1.0" PDF="25719" > PDF=25710 MemberID=9 </weight>
<weight id="1523" MUR="1.0" MUF="1.0" PDF="25720" > PDF=25710 MemberID=10 </weight>
<weight id="1524" MUR="1.0" MUF="1.0" PDF="25721" > PDF=25710 MemberID=11 </weight>
<weight id="1525" MUR="1.0" MUF="1.0" PDF="25722" > PDF=25710 MemberID=12 </weight>
<weight id="1526" MUR="1.0" MUF="1.0" PDF="25723" > PDF=25710 MemberID=13 </weight>
<weight id="1527" MUR="1.0" MUF="1.0" PDF="25724" > PDF=25710 MemberID=14 </weight>
<weight id="1528" MUR="1.0" MUF="1.0" PDF="25725" > PDF=25710 MemberID=15 </weight>
<weight id="1529" MUR="1.0" MUF="1.0" PDF="25726" > PDF=25710 MemberID=16 </weight>
<weight id="1530" MUR="1.0" MUF="1.0" PDF="25727" > PDF=25710 MemberID=17 </weight>
<weight id="1531" MUR="1.0" MUF="1.0" PDF="25728" > PDF=25710 MemberID=18 </weight>
<weight id="1532" MUR="1.0" MUF="1.0" PDF="25729" > PDF=25710 MemberID=19 </weight>
<weight id="1533" MUR="1.0" MUF="1.0" PDF="25730" > PDF=25710 MemberID=20 </weight>
<weight id="1534" MUR="1.0" MUF="1.0" PDF="25731" > PDF=25710 MemberID=21 </weight>
<weight id="1535" MUR="1.0" MUF="1.0" PDF="25732" > PDF=25710 MemberID=22 </weight>
<weight id="1536" MUR="1.0" MUF="1.0" PDF="25733" > PDF=25710 MemberID=23 </weight>
<weight id="1537" MUR="1.0" MUF="1.0" PDF="25734" > PDF=25710 MemberID=24 </weight>
<weight id="1538" MUR="1.0" MUF="1.0" PDF="25735" > PDF=25710 MemberID=25 </weight>
<weight id="1539" MUR="1.0" MUF="1.0" PDF="25736" > PDF=25710 MemberID=26 </weight>
<weight id="1540" MUR="1.0" MUF="1.0" PDF="25737" > PDF=25710 MemberID=27 </weight>
<weight id="1541" MUR="1.0" MUF="1.0" PDF="25738" > PDF=25710 MemberID=28 </weight>
<weight id="1542" MUR="1.0" MUF="1.0" PDF="25739" > PDF=25710 MemberID=29 </weight>
<weight id="1543" MUR="1.0" MUF="1.0" PDF="25740" > PDF=25710 MemberID=30 </weight>
<weight id="1544" MUR="1.0" MUF="1.0" PDF="25741" > PDF=25710 MemberID=31 </weight>
<weight id="1545" MUR="1.0" MUF="1.0" PDF="25742" > PDF=25710 MemberID=32 </weight>
<weight id="1546" MUR="1.0" MUF="1.0" PDF="25743" > PDF=25710 MemberID=33 </weight>
<weight id="1547" MUR="1.0" MUF="1.0" PDF="25744" > PDF=25710 MemberID=34 </weight>
<weight id="1548" MUR="1.0" MUF="1.0" PDF="25745" > PDF=25710 MemberID=35 </weight>
<weight id="1549" MUR="1.0" MUF="1.0" PDF="25746" > PDF=25710 MemberID=36 </weight>
<weight id="1550" MUR="1.0" MUF="1.0" PDF="25747" > PDF=25710 MemberID=37 </weight>
<weight id="1551" MUR="1.0" MUF="1.0" PDF="25748" > PDF=25710 MemberID=38 </weight>
<weight id="1552" MUR="1.0" MUF="1.0" PDF="25749" > PDF=25710 MemberID=39 </weight>
<weight id="1553" MUR="1.0" MUF="1.0" PDF="25750" > PDF=25710 MemberID=40 </weight>
<weight id="1554" MUR="1.0" MUF="1.0" PDF="25751" > PDF=25710 MemberID=41 </weight>
<weight id="1555" MUR="1.0" MUF="1.0" PDF="25752" > PDF=25710 MemberID=42 </weight>
<weight id="1556" MUR="1.0" MUF="1.0" PDF="25753" > PDF=25710 MemberID=43 </weight>
<weight id="1557" MUR="1.0" MUF="1.0" PDF="25754" > PDF=25710 MemberID=44 </weight>
<weight id="1558" MUR="1.0" MUF="1.0" PDF="25755" > PDF=25710 MemberID=45 </weight>
<weight id="1559" MUR="1.0" MUF="1.0" PDF="25756" > PDF=25710 MemberID=46 </weight>
<weight id="1560" MUR="1.0" MUF="1.0" PDF="25757" > PDF=25710 MemberID=47 </weight>
<weight id="1561" MUR="1.0" MUF="1.0" PDF="25758" > PDF=25710 MemberID=48 </weight>
<weight id="1562" MUR="1.0" MUF="1.0" PDF="25759" > PDF=25710 MemberID=49 </weight>
<weight id="1563" MUR="1.0" MUF="1.0" PDF="25760" > PDF=25710 MemberID=50 </weight>
</weightgroup> # PDFSET -> PDFSET
<weightgroup name="MMHT2014nnlo_asmzsmallrange_nf4" combine="unknown"> # 25770: MMHT 2014 NNLO (fits for range of alpha_S values, evolve with 4 flavours maximum). This set has 3 member PDFs. mem=0 --.gt. best-fit alpha_S(M_Z) = 0.118; mem=1-2 --.gt. alpha_S(M_Z) = 0.117, 0.119. Website: www.hep.ucl.ac.uk/mmht
<weight id="1564" MUR="1.0" MUF="1.0" PDF="25770" > PDF=25770 MemberID=0 </weight>
<weight id="1565" MUR="1.0" MUF="1.0" PDF="25771" > PDF=25770 MemberID=1 </weight>
<weight id="1566" MUR="1.0" MUF="1.0" PDF="25772" > PDF=25770 MemberID=2 </weight>
</weightgroup> # PDFSET -> PDFSET
<weightgroup name="MMHT2014nnlo_mcrange_nf4" combine="unknown"> # 25805: MMHT 2014 NNLO (range of mc, evolve with 4 flavours maximum). This set has 9 member PDFs. mem=0 --.gt. default mc = 1.40 GeV; mem=1-8 --.gt. mc = 1.15 - 1.55 GeV in steps of 0.05 GeV. Website: www.hep.ucl.ac.uk/mmht
<weight id="1567" MUR="1.0" MUF="1.0" PDF="25805" > PDF=25805 MemberID=0 </weight>
<weight id="1568" MUR="1.0" MUF="1.0" PDF="25806" > PDF=25805 MemberID=1 </weight>
<weight id="1569" MUR="1.0" MUF="1.0" PDF="25807" > PDF=25805 MemberID=2 </weight>
<weight id="1570" MUR="1.0" MUF="1.0" PDF="25808" > PDF=25805 MemberID=3 </weight>
<weight id="1571" MUR="1.0" MUF="1.0" PDF="25809" > PDF=25805 MemberID=4 </weight>
<weight id="1572" MUR="1.0" MUF="1.0" PDF="25810" > PDF=25805 MemberID=5 </weight>
<weight id="1573" MUR="1.0" MUF="1.0" PDF="25811" > PDF=25805 MemberID=6 </weight>
<weight id="1574" MUR="1.0" MUF="1.0" PDF="25812" > PDF=25805 MemberID=7 </weight>
<weight id="1575" MUR="1.0" MUF="1.0" PDF="25813" > PDF=25805 MemberID=8 </weight>
</weightgroup> # PDFSET -> PDFSET
<weightgroup name="MMHT2014nnlo_mbrange_nf4" combine="unknown"> # 25840: MMHT 2014 NNLO (range of mb, evolve with 4 flavours maximum). This set has 5 member PDFs. mem=0 --.gt. default mb = 4.75 GeV; mem=1-4 --.gt. mb = 4.25 - 5.25 GeV in steps of 0.25 GeV. Website: www.hep.ucl.ac.uk/mmht
<weight id="1576" MUR="1.0" MUF="1.0" PDF="25840" > PDF=25840 MemberID=0 </weight>
<weight id="1577" MUR="1.0" MUF="1.0" PDF="25841" > PDF=25840 MemberID=1 </weight>
<weight id="1578" MUR="1.0" MUF="1.0" PDF="25842" > PDF=25840 MemberID=2 </weight>
<weight id="1579" MUR="1.0" MUF="1.0" PDF="25843" > PDF=25840 MemberID=3 </weight>
<weight id="1580" MUR="1.0" MUF="1.0" PDF="25844" > PDF=25840 MemberID=4 </weight>
</weightgroup> # PDFSET -> PDFSET
<weightgroup name="PDF4LHC15_nlo_nf4_30" combine="symmhessian"> # 92000: PDF4LHC15_nlo_nf4_30, alphas(MZ)=0.1126, mem=0 ; central value; mem=1-30 ; PDF symmetric eigenvectors
<weight id="1581" MUR="1.0" MUF="1.0" PDF="92000" > PDF=92000 MemberID=0 </weight>
<weight id="1582" MUR="1.0" MUF="1.0" PDF="92001" > PDF=92000 MemberID=1 </weight>
<weight id="1583" MUR="1.0" MUF="1.0" PDF="92002" > PDF=92000 MemberID=2 </weight>
<weight id="1584" MUR="1.0" MUF="1.0" PDF="92003" > PDF=92000 MemberID=3 </weight>
<weight id="1585" MUR="1.0" MUF="1.0" PDF="92004" > PDF=92000 MemberID=4 </weight>
<weight id="1586" MUR="1.0" MUF="1.0" PDF="92005" > PDF=92000 MemberID=5 </weight>
<weight id="1587" MUR="1.0" MUF="1.0" PDF="92006" > PDF=92000 MemberID=6 </weight>
<weight id="1588" MUR="1.0" MUF="1.0" PDF="92007" > PDF=92000 MemberID=7 </weight>
<weight id="1589" MUR="1.0" MUF="1.0" PDF="92008" > PDF=92000 MemberID=8 </weight>
<weight id="1590" MUR="1.0" MUF="1.0" PDF="92009" > PDF=92000 MemberID=9 </weight>
<weight id="1591" MUR="1.0" MUF="1.0" PDF="92010" > PDF=92000 MemberID=10 </weight>
<weight id="1592" MUR="1.0" MUF="1.0" PDF="92011" > PDF=92000 MemberID=11 </weight>
<weight id="1593" MUR="1.0" MUF="1.0" PDF="92012" > PDF=92000 MemberID=12 </weight>
<weight id="1594" MUR="1.0" MUF="1.0" PDF="92013" > PDF=92000 MemberID=13 </weight>
<weight id="1595" MUR="1.0" MUF="1.0" PDF="92014" > PDF=92000 MemberID=14 </weight>
<weight id="1596" MUR="1.0" MUF="1.0" PDF="92015" > PDF=92000 MemberID=15 </weight>
<weight id="1597" MUR="1.0" MUF="1.0" PDF="92016" > PDF=92000 MemberID=16 </weight>
<weight id="1598" MUR="1.0" MUF="1.0" PDF="92017" > PDF=92000 MemberID=17 </weight>
<weight id="1599" MUR="1.0" MUF="1.0" PDF="92018" > PDF=92000 MemberID=18 </weight>
<weight id="1600" MUR="1.0" MUF="1.0" PDF="92019" > PDF=92000 MemberID=19 </weight>
<weight id="1601" MUR="1.0" MUF="1.0" PDF="92020" > PDF=92000 MemberID=20 </weight>
<weight id="1602" MUR="1.0" MUF="1.0" PDF="92021" > PDF=92000 MemberID=21 </weight>
<weight id="1603" MUR="1.0" MUF="1.0" PDF="92022" > PDF=92000 MemberID=22 </weight>
<weight id="1604" MUR="1.0" MUF="1.0" PDF="92023" > PDF=92000 MemberID=23 </weight>
<weight id="1605" MUR="1.0" MUF="1.0" PDF="92024" > PDF=92000 MemberID=24 </weight>
<weight id="1606" MUR="1.0" MUF="1.0" PDF="92025" > PDF=92000 MemberID=25 </weight>
<weight id="1607" MUR="1.0" MUF="1.0" PDF="92026" > PDF=92000 MemberID=26 </weight>
<weight id="1608" MUR="1.0" MUF="1.0" PDF="92027" > PDF=92000 MemberID=27 </weight>
<weight id="1609" MUR="1.0" MUF="1.0" PDF="92028" > PDF=92000 MemberID=28 </weight>
<weight id="1610" MUR="1.0" MUF="1.0" PDF="92029" > PDF=92000 MemberID=29 </weight>
<weight id="1611" MUR="1.0" MUF="1.0" PDF="92030" > PDF=92000 MemberID=30 </weight>
</weightgroup> # PDFSET -> PDFSET
<weightgroup name="NNPDF31_nnlo_hessian_pdfas" combine="symmhessian+as"> # 306000: Hessian conversion of NNPDF31_nnlo_as_0118_1000, mem=0 central value ; Alphas(MZ)=0.118; mem=1-100 ; PDF eig.; mem=101 ; central value Alphas(MZ)=0.116; mem=102 ; central value Alphas(MZ)=0.120
<weight id="1612" MUR="1.0" MUF="1.0" PDF="306000" > PDF=306000 MemberID=0 </weight>
<weight id="1613" MUR="1.0" MUF="1.0" PDF="306001" > PDF=306000 MemberID=1 </weight>
<weight id="1614" MUR="1.0" MUF="1.0" PDF="306002" > PDF=306000 MemberID=2 </weight>
<weight id="1615" MUR="1.0" MUF="1.0" PDF="306003" > PDF=306000 MemberID=3 </weight>
<weight id="1616" MUR="1.0" MUF="1.0" PDF="306004" > PDF=306000 MemberID=4 </weight>
<weight id="1617" MUR="1.0" MUF="1.0" PDF="306005" > PDF=306000 MemberID=5 </weight>
<weight id="1618" MUR="1.0" MUF="1.0" PDF="306006" > PDF=306000 MemberID=6 </weight>
<weight id="1619" MUR="1.0" MUF="1.0" PDF="306007" > PDF=306000 MemberID=7 </weight>
<weight id="1620" MUR="1.0" MUF="1.0" PDF="306008" > PDF=306000 MemberID=8 </weight>
<weight id="1621" MUR="1.0" MUF="1.0" PDF="306009" > PDF=306000 MemberID=9 </weight>
<weight id="1622" MUR="1.0" MUF="1.0" PDF="306010" > PDF=306000 MemberID=10 </weight>
<weight id="1623" MUR="1.0" MUF="1.0" PDF="306011" > PDF=306000 MemberID=11 </weight>
<weight id="1624" MUR="1.0" MUF="1.0" PDF="306012" > PDF=306000 MemberID=12 </weight>
<weight id="1625" MUR="1.0" MUF="1.0" PDF="306013" > PDF=306000 MemberID=13 </weight>
<weight id="1626" MUR="1.0" MUF="1.0" PDF="306014" > PDF=306000 MemberID=14 </weight>
<weight id="1627" MUR="1.0" MUF="1.0" PDF="306015" > PDF=306000 MemberID=15 </weight>
<weight id="1628" MUR="1.0" MUF="1.0" PDF="306016" > PDF=306000 MemberID=16 </weight>
<weight id="1629" MUR="1.0" MUF="1.0" PDF="306017" > PDF=306000 MemberID=17 </weight>
<weight id="1630" MUR="1.0" MUF="1.0" PDF="306018" > PDF=306000 MemberID=18 </weight>
<weight id="1631" MUR="1.0" MUF="1.0" PDF="306019" > PDF=306000 MemberID=19 </weight>
<weight id="1632" MUR="1.0" MUF="1.0" PDF="306020" > PDF=306000 MemberID=20 </weight>
<weight id="1633" MUR="1.0" MUF="1.0" PDF="306021" > PDF=306000 MemberID=21 </weight>
<weight id="1634" MUR="1.0" MUF="1.0" PDF="306022" > PDF=306000 MemberID=22 </weight>
<weight id="1635" MUR="1.0" MUF="1.0" PDF="306023" > PDF=306000 MemberID=23 </weight>
<weight id="1636" MUR="1.0" MUF="1.0" PDF="306024" > PDF=306000 MemberID=24 </weight>
<weight id="1637" MUR="1.0" MUF="1.0" PDF="306025" > PDF=306000 MemberID=25 </weight>
<weight id="1638" MUR="1.0" MUF="1.0" PDF="306026" > PDF=306000 MemberID=26 </weight>
<weight id="1639" MUR="1.0" MUF="1.0" PDF="306027" > PDF=306000 MemberID=27 </weight>
<weight id="1640" MUR="1.0" MUF="1.0" PDF="306028" > PDF=306000 MemberID=28 </weight>
<weight id="1641" MUR="1.0" MUF="1.0" PDF="306029" > PDF=306000 MemberID=29 </weight>
<weight id="1642" MUR="1.0" MUF="1.0" PDF="306030" > PDF=306000 MemberID=30 </weight>
<weight id="1643" MUR="1.0" MUF="1.0" PDF="306031" > PDF=306000 MemberID=31 </weight>
<weight id="1644" MUR="1.0" MUF="1.0" PDF="306032" > PDF=306000 MemberID=32 </weight>
<weight id="1645" MUR="1.0" MUF="1.0" PDF="306033" > PDF=306000 MemberID=33 </weight>
<weight id="1646" MUR="1.0" MUF="1.0" PDF="306034" > PDF=306000 MemberID=34 </weight>
<weight id="1647" MUR="1.0" MUF="1.0" PDF="306035" > PDF=306000 MemberID=35 </weight>
<weight id="1648" MUR="1.0" MUF="1.0" PDF="306036" > PDF=306000 MemberID=36 </weight>
<weight id="1649" MUR="1.0" MUF="1.0" PDF="306037" > PDF=306000 MemberID=37 </weight>
<weight id="1650" MUR="1.0" MUF="1.0" PDF="306038" > PDF=306000 MemberID=38 </weight>
<weight id="1651" MUR="1.0" MUF="1.0" PDF="306039" > PDF=306000 MemberID=39 </weight>
<weight id="1652" MUR="1.0" MUF="1.0" PDF="306040" > PDF=306000 MemberID=40 </weight>
<weight id="1653" MUR="1.0" MUF="1.0" PDF="306041" > PDF=306000 MemberID=41 </weight>
<weight id="1654" MUR="1.0" MUF="1.0" PDF="306042" > PDF=306000 MemberID=42 </weight>
<weight id="1655" MUR="1.0" MUF="1.0" PDF="306043" > PDF=306000 MemberID=43 </weight>
<weight id="1656" MUR="1.0" MUF="1.0" PDF="306044" > PDF=306000 MemberID=44 </weight>
<weight id="1657" MUR="1.0" MUF="1.0" PDF="306045" > PDF=306000 MemberID=45 </weight>
<weight id="1658" MUR="1.0" MUF="1.0" PDF="306046" > PDF=306000 MemberID=46 </weight>
<weight id="1659" MUR="1.0" MUF="1.0" PDF="306047" > PDF=306000 MemberID=47 </weight>
<weight id="1660" MUR="1.0" MUF="1.0" PDF="306048" > PDF=306000 MemberID=48 </weight>
<weight id="1661" MUR="1.0" MUF="1.0" PDF="306049" > PDF=306000 MemberID=49 </weight>
<weight id="1662" MUR="1.0" MUF="1.0" PDF="306050" > PDF=306000 MemberID=50 </weight>
<weight id="1663" MUR="1.0" MUF="1.0" PDF="306051" > PDF=306000 MemberID=51 </weight>
<weight id="1664" MUR="1.0" MUF="1.0" PDF="306052" > PDF=306000 MemberID=52 </weight>
<weight id="1665" MUR="1.0" MUF="1.0" PDF="306053" > PDF=306000 MemberID=53 </weight>
<weight id="1666" MUR="1.0" MUF="1.0" PDF="306054" > PDF=306000 MemberID=54 </weight>
<weight id="1667" MUR="1.0" MUF="1.0" PDF="306055" > PDF=306000 MemberID=55 </weight>
<weight id="1668" MUR="1.0" MUF="1.0" PDF="306056" > PDF=306000 MemberID=56 </weight>
<weight id="1669" MUR="1.0" MUF="1.0" PDF="306057" > PDF=306000 MemberID=57 </weight>
<weight id="1670" MUR="1.0" MUF="1.0" PDF="306058" > PDF=306000 MemberID=58 </weight>
<weight id="1671" MUR="1.0" MUF="1.0" PDF="306059" > PDF=306000 MemberID=59 </weight>
<weight id="1672" MUR="1.0" MUF="1.0" PDF="306060" > PDF=306000 MemberID=60 </weight>
<weight id="1673" MUR="1.0" MUF="1.0" PDF="306061" > PDF=306000 MemberID=61 </weight>
<weight id="1674" MUR="1.0" MUF="1.0" PDF="306062" > PDF=306000 MemberID=62 </weight>
<weight id="1675" MUR="1.0" MUF="1.0" PDF="306063" > PDF=306000 MemberID=63 </weight>
<weight id="1676" MUR="1.0" MUF="1.0" PDF="306064" > PDF=306000 MemberID=64 </weight>
<weight id="1677" MUR="1.0" MUF="1.0" PDF="306065" > PDF=306000 MemberID=65 </weight>
<weight id="1678" MUR="1.0" MUF="1.0" PDF="306066" > PDF=306000 MemberID=66 </weight>
<weight id="1679" MUR="1.0" MUF="1.0" PDF="306067" > PDF=306000 MemberID=67 </weight>
<weight id="1680" MUR="1.0" MUF="1.0" PDF="306068" > PDF=306000 MemberID=68 </weight>
<weight id="1681" MUR="1.0" MUF="1.0" PDF="306069" > PDF=306000 MemberID=69 </weight>
<weight id="1682" MUR="1.0" MUF="1.0" PDF="306070" > PDF=306000 MemberID=70 </weight>
<weight id="1683" MUR="1.0" MUF="1.0" PDF="306071" > PDF=306000 MemberID=71 </weight>
<weight id="1684" MUR="1.0" MUF="1.0" PDF="306072" > PDF=306000 MemberID=72 </weight>
<weight id="1685" MUR="1.0" MUF="1.0" PDF="306073" > PDF=306000 MemberID=73 </weight>
<weight id="1686" MUR="1.0" MUF="1.0" PDF="306074" > PDF=306000 MemberID=74 </weight>
<weight id="1687" MUR="1.0" MUF="1.0" PDF="306075" > PDF=306000 MemberID=75 </weight>
<weight id="1688" MUR="1.0" MUF="1.0" PDF="306076" > PDF=306000 MemberID=76 </weight>
<weight id="1689" MUR="1.0" MUF="1.0" PDF="306077" > PDF=306000 MemberID=77 </weight>
<weight id="1690" MUR="1.0" MUF="1.0" PDF="306078" > PDF=306000 MemberID=78 </weight>
<weight id="1691" MUR="1.0" MUF="1.0" PDF="306079" > PDF=306000 MemberID=79 </weight>
<weight id="1692" MUR="1.0" MUF="1.0" PDF="306080" > PDF=306000 MemberID=80 </weight>
<weight id="1693" MUR="1.0" MUF="1.0" PDF="306081" > PDF=306000 MemberID=81 </weight>
<weight id="1694" MUR="1.0" MUF="1.0" PDF="306082" > PDF=306000 MemberID=82 </weight>
<weight id="1695" MUR="1.0" MUF="1.0" PDF="306083" > PDF=306000 MemberID=83 </weight>
<weight id="1696" MUR="1.0" MUF="1.0" PDF="306084" > PDF=306000 MemberID=84 </weight>
<weight id="1697" MUR="1.0" MUF="1.0" PDF="306085" > PDF=306000 MemberID=85 </weight>
<weight id="1698" MUR="1.0" MUF="1.0" PDF="306086" > PDF=306000 MemberID=86 </weight>
<weight id="1699" MUR="1.0" MUF="1.0" PDF="306087" > PDF=306000 MemberID=87 </weight>
<weight id="1700" MUR="1.0" MUF="1.0" PDF="306088" > PDF=306000 MemberID=88 </weight>
<weight id="1701" MUR="1.0" MUF="1.0" PDF="306089" > PDF=306000 MemberID=89 </weight>
<weight id="1702" MUR="1.0" MUF="1.0" PDF="306090" > PDF=306000 MemberID=90 </weight>
<weight id="1703" MUR="1.0" MUF="1.0" PDF="306091" > PDF=306000 MemberID=91 </weight>
<weight id="1704" MUR="1.0" MUF="1.0" PDF="306092" > PDF=306000 MemberID=92 </weight>
<weight id="1705" MUR="1.0" MUF="1.0" PDF="306093" > PDF=306000 MemberID=93 </weight>
<weight id="1706" MUR="1.0" MUF="1.0" PDF="306094" > PDF=306000 MemberID=94 </weight>
<weight id="1707" MUR="1.0" MUF="1.0" PDF="306095" > PDF=306000 MemberID=95 </weight>
<weight id="1708" MUR="1.0" MUF="1.0" PDF="306096" > PDF=306000 MemberID=96 </weight>
<weight id="1709" MUR="1.0" MUF="1.0" PDF="306097" > PDF=306000 MemberID=97 </weight>
<weight id="1710" MUR="1.0" MUF="1.0" PDF="306098" > PDF=306000 MemberID=98 </weight>
<weight id="1711" MUR="1.0" MUF="1.0" PDF="306099" > PDF=306000 MemberID=99 </weight>
<weight id="1712" MUR="1.0" MUF="1.0" PDF="306100" > PDF=306000 MemberID=100 </weight>
<weight id="1713" MUR="1.0" MUF="1.0" PDF="306101" > PDF=306000 MemberID=101 </weight>
<weight id="1714" MUR="1.0" MUF="1.0" PDF="306102" > PDF=306000 MemberID=102 </weight>
</weightgroup> # PDFSET -> PDFSET
<weightgroup name="NNPDF31_nlo_as_0118_nf_4" combine="replicas"> # 320500: NNPDF3.1 NLO global fit, nf=4. mem=0 ; average on replicas; mem=1-100 ; PDF replicas
<weight id="1715" MUR="1.0" MUF="1.0" PDF="320500" > PDF=320500 MemberID=0 </weight>
<weight id="1716" MUR="1.0" MUF="1.0" PDF="320501" > PDF=320500 MemberID=1 </weight>
<weight id="1717" MUR="1.0" MUF="1.0" PDF="320502" > PDF=320500 MemberID=2 </weight>
<weight id="1718" MUR="1.0" MUF="1.0" PDF="320503" > PDF=320500 MemberID=3 </weight>
<weight id="1719" MUR="1.0" MUF="1.0" PDF="320504" > PDF=320500 MemberID=4 </weight>
<weight id="1720" MUR="1.0" MUF="1.0" PDF="320505" > PDF=320500 MemberID=5 </weight>
<weight id="1721" MUR="1.0" MUF="1.0" PDF="320506" > PDF=320500 MemberID=6 </weight>
<weight id="1722" MUR="1.0" MUF="1.0" PDF="320507" > PDF=320500 MemberID=7 </weight>
<weight id="1723" MUR="1.0" MUF="1.0" PDF="320508" > PDF=320500 MemberID=8 </weight>
<weight id="1724" MUR="1.0" MUF="1.0" PDF="320509" > PDF=320500 MemberID=9 </weight>
<weight id="1725" MUR="1.0" MUF="1.0" PDF="320510" > PDF=320500 MemberID=10 </weight>
<weight id="1726" MUR="1.0" MUF="1.0" PDF="320511" > PDF=320500 MemberID=11 </weight>
<weight id="1727" MUR="1.0" MUF="1.0" PDF="320512" > PDF=320500 MemberID=12 </weight>
<weight id="1728" MUR="1.0" MUF="1.0" PDF="320513" > PDF=320500 MemberID=13 </weight>
<weight id="1729" MUR="1.0" MUF="1.0" PDF="320514" > PDF=320500 MemberID=14 </weight>
<weight id="1730" MUR="1.0" MUF="1.0" PDF="320515" > PDF=320500 MemberID=15 </weight>
<weight id="1731" MUR="1.0" MUF="1.0" PDF="320516" > PDF=320500 MemberID=16 </weight>
<weight id="1732" MUR="1.0" MUF="1.0" PDF="320517" > PDF=320500 MemberID=17 </weight>
<weight id="1733" MUR="1.0" MUF="1.0" PDF="320518" > PDF=320500 MemberID=18 </weight>
<weight id="1734" MUR="1.0" MUF="1.0" PDF="320519" > PDF=320500 MemberID=19 </weight>
<weight id="1735" MUR="1.0" MUF="1.0" PDF="320520" > PDF=320500 MemberID=20 </weight>
<weight id="1736" MUR="1.0" MUF="1.0" PDF="320521" > PDF=320500 MemberID=21 </weight>
<weight id="1737" MUR="1.0" MUF="1.0" PDF="320522" > PDF=320500 MemberID=22 </weight>
<weight id="1738" MUR="1.0" MUF="1.0" PDF="320523" > PDF=320500 MemberID=23 </weight>
<weight id="1739" MUR="1.0" MUF="1.0" PDF="320524" > PDF=320500 MemberID=24 </weight>
<weight id="1740" MUR="1.0" MUF="1.0" PDF="320525" > PDF=320500 MemberID=25 </weight>
<weight id="1741" MUR="1.0" MUF="1.0" PDF="320526" > PDF=320500 MemberID=26 </weight>
<weight id="1742" MUR="1.0" MUF="1.0" PDF="320527" > PDF=320500 MemberID=27 </weight>
<weight id="1743" MUR="1.0" MUF="1.0" PDF="320528" > PDF=320500 MemberID=28 </weight>
<weight id="1744" MUR="1.0" MUF="1.0" PDF="320529" > PDF=320500 MemberID=29 </weight>
<weight id="1745" MUR="1.0" MUF="1.0" PDF="320530" > PDF=320500 MemberID=30 </weight>
<weight id="1746" MUR="1.0" MUF="1.0" PDF="320531" > PDF=320500 MemberID=31 </weight>
<weight id="1747" MUR="1.0" MUF="1.0" PDF="320532" > PDF=320500 MemberID=32 </weight>
<weight id="1748" MUR="1.0" MUF="1.0" PDF="320533" > PDF=320500 MemberID=33 </weight>
<weight id="1749" MUR="1.0" MUF="1.0" PDF="320534" > PDF=320500 MemberID=34 </weight>
<weight id="1750" MUR="1.0" MUF="1.0" PDF="320535" > PDF=320500 MemberID=35 </weight>
<weight id="1751" MUR="1.0" MUF="1.0" PDF="320536" > PDF=320500 MemberID=36 </weight>
<weight id="1752" MUR="1.0" MUF="1.0" PDF="320537" > PDF=320500 MemberID=37 </weight>
<weight id="1753" MUR="1.0" MUF="1.0" PDF="320538" > PDF=320500 MemberID=38 </weight>
<weight id="1754" MUR="1.0" MUF="1.0" PDF="320539" > PDF=320500 MemberID=39 </weight>
<weight id="1755" MUR="1.0" MUF="1.0" PDF="320540" > PDF=320500 MemberID=40 </weight>
<weight id="1756" MUR="1.0" MUF="1.0" PDF="320541" > PDF=320500 MemberID=41 </weight>
<weight id="1757" MUR="1.0" MUF="1.0" PDF="320542" > PDF=320500 MemberID=42 </weight>
<weight id="1758" MUR="1.0" MUF="1.0" PDF="320543" > PDF=320500 MemberID=43 </weight>
<weight id="1759" MUR="1.0" MUF="1.0" PDF="320544" > PDF=320500 MemberID=44 </weight>
<weight id="1760" MUR="1.0" MUF="1.0" PDF="320545" > PDF=320500 MemberID=45 </weight>
<weight id="1761" MUR="1.0" MUF="1.0" PDF="320546" > PDF=320500 MemberID=46 </weight>
<weight id="1762" MUR="1.0" MUF="1.0" PDF="320547" > PDF=320500 MemberID=47 </weight>
<weight id="1763" MUR="1.0" MUF="1.0" PDF="320548" > PDF=320500 MemberID=48 </weight>
<weight id="1764" MUR="1.0" MUF="1.0" PDF="320549" > PDF=320500 MemberID=49 </weight>
<weight id="1765" MUR="1.0" MUF="1.0" PDF="320550" > PDF=320500 MemberID=50 </weight>
<weight id="1766" MUR="1.0" MUF="1.0" PDF="320551" > PDF=320500 MemberID=51 </weight>
<weight id="1767" MUR="1.0" MUF="1.0" PDF="320552" > PDF=320500 MemberID=52 </weight>
<weight id="1768" MUR="1.0" MUF="1.0" PDF="320553" > PDF=320500 MemberID=53 </weight>
<weight id="1769" MUR="1.0" MUF="1.0" PDF="320554" > PDF=320500 MemberID=54 </weight>
<weight id="1770" MUR="1.0" MUF="1.0" PDF="320555" > PDF=320500 MemberID=55 </weight>
<weight id="1771" MUR="1.0" MUF="1.0" PDF="320556" > PDF=320500 MemberID=56 </weight>
<weight id="1772" MUR="1.0" MUF="1.0" PDF="320557" > PDF=320500 MemberID=57 </weight>
<weight id="1773" MUR="1.0" MUF="1.0" PDF="320558" > PDF=320500 MemberID=58 </weight>
<weight id="1774" MUR="1.0" MUF="1.0" PDF="320559" > PDF=320500 MemberID=59 </weight>
<weight id="1775" MUR="1.0" MUF="1.0" PDF="320560" > PDF=320500 MemberID=60 </weight>
<weight id="1776" MUR="1.0" MUF="1.0" PDF="320561" > PDF=320500 MemberID=61 </weight>
<weight id="1777" MUR="1.0" MUF="1.0" PDF="320562" > PDF=320500 MemberID=62 </weight>
<weight id="1778" MUR="1.0" MUF="1.0" PDF="320563" > PDF=320500 MemberID=63 </weight>
<weight id="1779" MUR="1.0" MUF="1.0" PDF="320564" > PDF=320500 MemberID=64 </weight>
<weight id="1780" MUR="1.0" MUF="1.0" PDF="320565" > PDF=320500 MemberID=65 </weight>
<weight id="1781" MUR="1.0" MUF="1.0" PDF="320566" > PDF=320500 MemberID=66 </weight>
<weight id="1782" MUR="1.0" MUF="1.0" PDF="320567" > PDF=320500 MemberID=67 </weight>
<weight id="1783" MUR="1.0" MUF="1.0" PDF="320568" > PDF=320500 MemberID=68 </weight>
<weight id="1784" MUR="1.0" MUF="1.0" PDF="320569" > PDF=320500 MemberID=69 </weight>
<weight id="1785" MUR="1.0" MUF="1.0" PDF="320570" > PDF=320500 MemberID=70 </weight>
<weight id="1786" MUR="1.0" MUF="1.0" PDF="320571" > PDF=320500 MemberID=71 </weight>
<weight id="1787" MUR="1.0" MUF="1.0" PDF="320572" > PDF=320500 MemberID=72 </weight>
<weight id="1788" MUR="1.0" MUF="1.0" PDF="320573" > PDF=320500 MemberID=73 </weight>
<weight id="1789" MUR="1.0" MUF="1.0" PDF="320574" > PDF=320500 MemberID=74 </weight>
<weight id="1790" MUR="1.0" MUF="1.0" PDF="320575" > PDF=320500 MemberID=75 </weight>
<weight id="1791" MUR="1.0" MUF="1.0" PDF="320576" > PDF=320500 MemberID=76 </weight>
<weight id="1792" MUR="1.0" MUF="1.0" PDF="320577" > PDF=320500 MemberID=77 </weight>
<weight id="1793" MUR="1.0" MUF="1.0" PDF="320578" > PDF=320500 MemberID=78 </weight>
<weight id="1794" MUR="1.0" MUF="1.0" PDF="320579" > PDF=320500 MemberID=79 </weight>
<weight id="1795" MUR="1.0" MUF="1.0" PDF="320580" > PDF=320500 MemberID=80 </weight>
<weight id="1796" MUR="1.0" MUF="1.0" PDF="320581" > PDF=320500 MemberID=81 </weight>
<weight id="1797" MUR="1.0" MUF="1.0" PDF="320582" > PDF=320500 MemberID=82 </weight>
<weight id="1798" MUR="1.0" MUF="1.0" PDF="320583" > PDF=320500 MemberID=83 </weight>
<weight id="1799" MUR="1.0" MUF="1.0" PDF="320584" > PDF=320500 MemberID=84 </weight>
<weight id="1800" MUR="1.0" MUF="1.0" PDF="320585" > PDF=320500 MemberID=85 </weight>
<weight id="1801" MUR="1.0" MUF="1.0" PDF="320586" > PDF=320500 MemberID=86 </weight>
<weight id="1802" MUR="1.0" MUF="1.0" PDF="320587" > PDF=320500 MemberID=87 </weight>
<weight id="1803" MUR="1.0" MUF="1.0" PDF="320588" > PDF=320500 MemberID=88 </weight>
<weight id="1804" MUR="1.0" MUF="1.0" PDF="320589" > PDF=320500 MemberID=89 </weight>
<weight id="1805" MUR="1.0" MUF="1.0" PDF="320590" > PDF=320500 MemberID=90 </weight>
<weight id="1806" MUR="1.0" MUF="1.0" PDF="320591" > PDF=320500 MemberID=91 </weight>
<weight id="1807" MUR="1.0" MUF="1.0" PDF="320592" > PDF=320500 MemberID=92 </weight>
<weight id="1808" MUR="1.0" MUF="1.0" PDF="320593" > PDF=320500 MemberID=93 </weight>
<weight id="1809" MUR="1.0" MUF="1.0" PDF="320594" > PDF=320500 MemberID=94 </weight>
<weight id="1810" MUR="1.0" MUF="1.0" PDF="320595" > PDF=320500 MemberID=95 </weight>
<weight id="1811" MUR="1.0" MUF="1.0" PDF="320596" > PDF=320500 MemberID=96 </weight>
<weight id="1812" MUR="1.0" MUF="1.0" PDF="320597" > PDF=320500 MemberID=97 </weight>
<weight id="1813" MUR="1.0" MUF="1.0" PDF="320598" > PDF=320500 MemberID=98 </weight>
<weight id="1814" MUR="1.0" MUF="1.0" PDF="320599" > PDF=320500 MemberID=99 </weight>
<weight id="1815" MUR="1.0" MUF="1.0" PDF="320600" > PDF=320500 MemberID=100 </weight>
</weightgroup> # PDFSET -> PDFSET
<weightgroup name="NNPDF30_nlo_as_0118_nf_4" combine="replicas"> # 260400: NNPDF3.0 NLO global fit, alphas(mb)=0.22278. mem=0 ; average on replicas; mem=1-100 ; PDF replicas
<weight id="1816" MUR="1.0" MUF="1.0" PDF="260400" > PDF=260400 MemberID=0 </weight>
<weight id="1817" MUR="1.0" MUF="1.0" PDF="260401" > PDF=260400 MemberID=1 </weight>
<weight id="1818" MUR="1.0" MUF="1.0" PDF="260402" > PDF=260400 MemberID=2 </weight>
<weight id="1819" MUR="1.0" MUF="1.0" PDF="260403" > PDF=260400 MemberID=3 </weight>
<weight id="1820" MUR="1.0" MUF="1.0" PDF="260404" > PDF=260400 MemberID=4 </weight>
<weight id="1821" MUR="1.0" MUF="1.0" PDF="260405" > PDF=260400 MemberID=5 </weight>
<weight id="1822" MUR="1.0" MUF="1.0" PDF="260406" > PDF=260400 MemberID=6 </weight>
<weight id="1823" MUR="1.0" MUF="1.0" PDF="260407" > PDF=260400 MemberID=7 </weight>
<weight id="1824" MUR="1.0" MUF="1.0" PDF="260408" > PDF=260400 MemberID=8 </weight>
<weight id="1825" MUR="1.0" MUF="1.0" PDF="260409" > PDF=260400 MemberID=9 </weight>
<weight id="1826" MUR="1.0" MUF="1.0" PDF="260410" > PDF=260400 MemberID=10 </weight>
<weight id="1827" MUR="1.0" MUF="1.0" PDF="260411" > PDF=260400 MemberID=11 </weight>
<weight id="1828" MUR="1.0" MUF="1.0" PDF="260412" > PDF=260400 MemberID=12 </weight>
<weight id="1829" MUR="1.0" MUF="1.0" PDF="260413" > PDF=260400 MemberID=13 </weight>
<weight id="1830" MUR="1.0" MUF="1.0" PDF="260414" > PDF=260400 MemberID=14 </weight>
<weight id="1831" MUR="1.0" MUF="1.0" PDF="260415" > PDF=260400 MemberID=15 </weight>
<weight id="1832" MUR="1.0" MUF="1.0" PDF="260416" > PDF=260400 MemberID=16 </weight>
<weight id="1833" MUR="1.0" MUF="1.0" PDF="260417" > PDF=260400 MemberID=17 </weight>
<weight id="1834" MUR="1.0" MUF="1.0" PDF="260418" > PDF=260400 MemberID=18 </weight>
<weight id="1835" MUR="1.0" MUF="1.0" PDF="260419" > PDF=260400 MemberID=19 </weight>
<weight id="1836" MUR="1.0" MUF="1.0" PDF="260420" > PDF=260400 MemberID=20 </weight>
<weight id="1837" MUR="1.0" MUF="1.0" PDF="260421" > PDF=260400 MemberID=21 </weight>
<weight id="1838" MUR="1.0" MUF="1.0" PDF="260422" > PDF=260400 MemberID=22 </weight>
<weight id="1839" MUR="1.0" MUF="1.0" PDF="260423" > PDF=260400 MemberID=23 </weight>
<weight id="1840" MUR="1.0" MUF="1.0" PDF="260424" > PDF=260400 MemberID=24 </weight>
<weight id="1841" MUR="1.0" MUF="1.0" PDF="260425" > PDF=260400 MemberID=25 </weight>
<weight id="1842" MUR="1.0" MUF="1.0" PDF="260426" > PDF=260400 MemberID=26 </weight>
<weight id="1843" MUR="1.0" MUF="1.0" PDF="260427" > PDF=260400 MemberID=27 </weight>
<weight id="1844" MUR="1.0" MUF="1.0" PDF="260428" > PDF=260400 MemberID=28 </weight>
<weight id="1845" MUR="1.0" MUF="1.0" PDF="260429" > PDF=260400 MemberID=29 </weight>
<weight id="1846" MUR="1.0" MUF="1.0" PDF="260430" > PDF=260400 MemberID=30 </weight>
<weight id="1847" MUR="1.0" MUF="1.0" PDF="260431" > PDF=260400 MemberID=31 </weight>
<weight id="1848" MUR="1.0" MUF="1.0" PDF="260432" > PDF=260400 MemberID=32 </weight>
<weight id="1849" MUR="1.0" MUF="1.0" PDF="260433" > PDF=260400 MemberID=33 </weight>
<weight id="1850" MUR="1.0" MUF="1.0" PDF="260434" > PDF=260400 MemberID=34 </weight>
<weight id="1851" MUR="1.0" MUF="1.0" PDF="260435" > PDF=260400 MemberID=35 </weight>
<weight id="1852" MUR="1.0" MUF="1.0" PDF="260436" > PDF=260400 MemberID=36 </weight>
<weight id="1853" MUR="1.0" MUF="1.0" PDF="260437" > PDF=260400 MemberID=37 </weight>
<weight id="1854" MUR="1.0" MUF="1.0" PDF="260438" > PDF=260400 MemberID=38 </weight>
<weight id="1855" MUR="1.0" MUF="1.0" PDF="260439" > PDF=260400 MemberID=39 </weight>
<weight id="1856" MUR="1.0" MUF="1.0" PDF="260440" > PDF=260400 MemberID=40 </weight>
<weight id="1857" MUR="1.0" MUF="1.0" PDF="260441" > PDF=260400 MemberID=41 </weight>
<weight id="1858" MUR="1.0" MUF="1.0" PDF="260442" > PDF=260400 MemberID=42 </weight>
<weight id="1859" MUR="1.0" MUF="1.0" PDF="260443" > PDF=260400 MemberID=43 </weight>
<weight id="1860" MUR="1.0" MUF="1.0" PDF="260444" > PDF=260400 MemberID=44 </weight>
<weight id="1861" MUR="1.0" MUF="1.0" PDF="260445" > PDF=260400 MemberID=45 </weight>
<weight id="1862" MUR="1.0" MUF="1.0" PDF="260446" > PDF=260400 MemberID=46 </weight>
<weight id="1863" MUR="1.0" MUF="1.0" PDF="260447" > PDF=260400 MemberID=47 </weight>
<weight id="1864" MUR="1.0" MUF="1.0" PDF="260448" > PDF=260400 MemberID=48 </weight>
<weight id="1865" MUR="1.0" MUF="1.0" PDF="260449" > PDF=260400 MemberID=49 </weight>
<weight id="1866" MUR="1.0" MUF="1.0" PDF="260450" > PDF=260400 MemberID=50 </weight>
<weight id="1867" MUR="1.0" MUF="1.0" PDF="260451" > PDF=260400 MemberID=51 </weight>
<weight id="1868" MUR="1.0" MUF="1.0" PDF="260452" > PDF=260400 MemberID=52 </weight>
<weight id="1869" MUR="1.0" MUF="1.0" PDF="260453" > PDF=260400 MemberID=53 </weight>
<weight id="1870" MUR="1.0" MUF="1.0" PDF="260454" > PDF=260400 MemberID=54 </weight>
<weight id="1871" MUR="1.0" MUF="1.0" PDF="260455" > PDF=260400 MemberID=55 </weight>
<weight id="1872" MUR="1.0" MUF="1.0" PDF="260456" > PDF=260400 MemberID=56 </weight>
<weight id="1873" MUR="1.0" MUF="1.0" PDF="260457" > PDF=260400 MemberID=57 </weight>
<weight id="1874" MUR="1.0" MUF="1.0" PDF="260458" > PDF=260400 MemberID=58 </weight>
<weight id="1875" MUR="1.0" MUF="1.0" PDF="260459" > PDF=260400 MemberID=59 </weight>
<weight id="1876" MUR="1.0" MUF="1.0" PDF="260460" > PDF=260400 MemberID=60 </weight>
<weight id="1877" MUR="1.0" MUF="1.0" PDF="260461" > PDF=260400 MemberID=61 </weight>
<weight id="1878" MUR="1.0" MUF="1.0" PDF="260462" > PDF=260400 MemberID=62 </weight>
<weight id="1879" MUR="1.0" MUF="1.0" PDF="260463" > PDF=260400 MemberID=63 </weight>
<weight id="1880" MUR="1.0" MUF="1.0" PDF="260464" > PDF=260400 MemberID=64 </weight>
<weight id="1881" MUR="1.0" MUF="1.0" PDF="260465" > PDF=260400 MemberID=65 </weight>
<weight id="1882" MUR="1.0" MUF="1.0" PDF="260466" > PDF=260400 MemberID=66 </weight>
<weight id="1883" MUR="1.0" MUF="1.0" PDF="260467" > PDF=260400 MemberID=67 </weight>
<weight id="1884" MUR="1.0" MUF="1.0" PDF="260468" > PDF=260400 MemberID=68 </weight>
<weight id="1885" MUR="1.0" MUF="1.0" PDF="260469" > PDF=260400 MemberID=69 </weight>
<weight id="1886" MUR="1.0" MUF="1.0" PDF="260470" > PDF=260400 MemberID=70 </weight>
<weight id="1887" MUR="1.0" MUF="1.0" PDF="260471" > PDF=260400 MemberID=71 </weight>
<weight id="1888" MUR="1.0" MUF="1.0" PDF="260472" > PDF=260400 MemberID=72 </weight>
<weight id="1889" MUR="1.0" MUF="1.0" PDF="260473" > PDF=260400 MemberID=73 </weight>
<weight id="1890" MUR="1.0" MUF="1.0" PDF="260474" > PDF=260400 MemberID=74 </weight>
<weight id="1891" MUR="1.0" MUF="1.0" PDF="260475" > PDF=260400 MemberID=75 </weight>
<weight id="1892" MUR="1.0" MUF="1.0" PDF="260476" > PDF=260400 MemberID=76 </weight>
<weight id="1893" MUR="1.0" MUF="1.0" PDF="260477" > PDF=260400 MemberID=77 </weight>
<weight id="1894" MUR="1.0" MUF="1.0" PDF="260478" > PDF=260400 MemberID=78 </weight>
<weight id="1895" MUR="1.0" MUF="1.0" PDF="260479" > PDF=260400 MemberID=79 </weight>
<weight id="1896" MUR="1.0" MUF="1.0" PDF="260480" > PDF=260400 MemberID=80 </weight>
<weight id="1897" MUR="1.0" MUF="1.0" PDF="260481" > PDF=260400 MemberID=81 </weight>
<weight id="1898" MUR="1.0" MUF="1.0" PDF="260482" > PDF=260400 MemberID=82 </weight>
<weight id="1899" MUR="1.0" MUF="1.0" PDF="260483" > PDF=260400 MemberID=83 </weight>
<weight id="1900" MUR="1.0" MUF="1.0" PDF="260484" > PDF=260400 MemberID=84 </weight>
<weight id="1901" MUR="1.0" MUF="1.0" PDF="260485" > PDF=260400 MemberID=85 </weight>
<weight id="1902" MUR="1.0" MUF="1.0" PDF="260486" > PDF=260400 MemberID=86 </weight>
<weight id="1903" MUR="1.0" MUF="1.0" PDF="260487" > PDF=260400 MemberID=87 </weight>
<weight id="1904" MUR="1.0" MUF="1.0" PDF="260488" > PDF=260400 MemberID=88 </weight>
<weight id="1905" MUR="1.0" MUF="1.0" PDF="260489" > PDF=260400 MemberID=89 </weight>
<weight id="1906" MUR="1.0" MUF="1.0" PDF="260490" > PDF=260400 MemberID=90 </weight>
<weight id="1907" MUR="1.0" MUF="1.0" PDF="260491" > PDF=260400 MemberID=91 </weight>
<weight id="1908" MUR="1.0" MUF="1.0" PDF="260492" > PDF=260400 MemberID=92 </weight>
<weight id="1909" MUR="1.0" MUF="1.0" PDF="260493" > PDF=260400 MemberID=93 </weight>
<weight id="1910" MUR="1.0" MUF="1.0" PDF="260494" > PDF=260400 MemberID=94 </weight>
<weight id="1911" MUR="1.0" MUF="1.0" PDF="260495" > PDF=260400 MemberID=95 </weight>
<weight id="1912" MUR="1.0" MUF="1.0" PDF="260496" > PDF=260400 MemberID=96 </weight>
<weight id="1913" MUR="1.0" MUF="1.0" PDF="260497" > PDF=260400 MemberID=97 </weight>
<weight id="1914" MUR="1.0" MUF="1.0" PDF="260498" > PDF=260400 MemberID=98 </weight>
<weight id="1915" MUR="1.0" MUF="1.0" PDF="260499" > PDF=260400 MemberID=99 </weight>
<weight id="1916" MUR="1.0" MUF="1.0" PDF="260500" > PDF=260400 MemberID=100 </weight>
</weightgroup> # PDFSET -> PDF
<weight id="1917" MUR="1.0" MUF="1.0" PDF="262400" > PDF=262400 MemberID=0 </weight>
<weight id="1918" MUR="1.0" MUF="1.0" PDF="263400" > PDF=263400 MemberID=0 </weight>
<weightgroup name="NNPDF30_nlo_nf_4_pdfas" combine="replicas+as"> # 292000: NNPDF3.0 NLO global fit; mem=0 to mem=100 with alphas(MZ)=0.118, mem=0 ; average on replicas 1-100; mem=1-100 ; PDF replicas with  alphas(MZ)=0.118; mem=101 ; central value for alphas=0.117; mem=102 ; central value for alphas=0.119; maximum number of active flavors NF=4
<weight id="1919" MUR="1.0" MUF="1.0" PDF="292000" > PDF=292000 MemberID=0 </weight>
<weight id="1920" MUR="1.0" MUF="1.0" PDF="292001" > PDF=292000 MemberID=1 </weight>
<weight id="1921" MUR="1.0" MUF="1.0" PDF="292002" > PDF=292000 MemberID=2 </weight>
<weight id="1922" MUR="1.0" MUF="1.0" PDF="292003" > PDF=292000 MemberID=3 </weight>
<weight id="1923" MUR="1.0" MUF="1.0" PDF="292004" > PDF=292000 MemberID=4 </weight>
<weight id="1924" MUR="1.0" MUF="1.0" PDF="292005" > PDF=292000 MemberID=5 </weight>
<weight id="1925" MUR="1.0" MUF="1.0" PDF="292006" > PDF=292000 MemberID=6 </weight>
<weight id="1926" MUR="1.0" MUF="1.0" PDF="292007" > PDF=292000 MemberID=7 </weight>
<weight id="1927" MUR="1.0" MUF="1.0" PDF="292008" > PDF=292000 MemberID=8 </weight>
<weight id="1928" MUR="1.0" MUF="1.0" PDF="292009" > PDF=292000 MemberID=9 </weight>
<weight id="1929" MUR="1.0" MUF="1.0" PDF="292010" > PDF=292000 MemberID=10 </weight>
<weight id="1930" MUR="1.0" MUF="1.0" PDF="292011" > PDF=292000 MemberID=11 </weight>
<weight id="1931" MUR="1.0" MUF="1.0" PDF="292012" > PDF=292000 MemberID=12 </weight>
<weight id="1932" MUR="1.0" MUF="1.0" PDF="292013" > PDF=292000 MemberID=13 </weight>
<weight id="1933" MUR="1.0" MUF="1.0" PDF="292014" > PDF=292000 MemberID=14 </weight>
<weight id="1934" MUR="1.0" MUF="1.0" PDF="292015" > PDF=292000 MemberID=15 </weight>
<weight id="1935" MUR="1.0" MUF="1.0" PDF="292016" > PDF=292000 MemberID=16 </weight>
<weight id="1936" MUR="1.0" MUF="1.0" PDF="292017" > PDF=292000 MemberID=17 </weight>
<weight id="1937" MUR="1.0" MUF="1.0" PDF="292018" > PDF=292000 MemberID=18 </weight>
<weight id="1938" MUR="1.0" MUF="1.0" PDF="292019" > PDF=292000 MemberID=19 </weight>
<weight id="1939" MUR="1.0" MUF="1.0" PDF="292020" > PDF=292000 MemberID=20 </weight>
<weight id="1940" MUR="1.0" MUF="1.0" PDF="292021" > PDF=292000 MemberID=21 </weight>
<weight id="1941" MUR="1.0" MUF="1.0" PDF="292022" > PDF=292000 MemberID=22 </weight>
<weight id="1942" MUR="1.0" MUF="1.0" PDF="292023" > PDF=292000 MemberID=23 </weight>
<weight id="1943" MUR="1.0" MUF="1.0" PDF="292024" > PDF=292000 MemberID=24 </weight>
<weight id="1944" MUR="1.0" MUF="1.0" PDF="292025" > PDF=292000 MemberID=25 </weight>
<weight id="1945" MUR="1.0" MUF="1.0" PDF="292026" > PDF=292000 MemberID=26 </weight>
<weight id="1946" MUR="1.0" MUF="1.0" PDF="292027" > PDF=292000 MemberID=27 </weight>
<weight id="1947" MUR="1.0" MUF="1.0" PDF="292028" > PDF=292000 MemberID=28 </weight>
<weight id="1948" MUR="1.0" MUF="1.0" PDF="292029" > PDF=292000 MemberID=29 </weight>
<weight id="1949" MUR="1.0" MUF="1.0" PDF="292030" > PDF=292000 MemberID=30 </weight>
<weight id="1950" MUR="1.0" MUF="1.0" PDF="292031" > PDF=292000 MemberID=31 </weight>
<weight id="1951" MUR="1.0" MUF="1.0" PDF="292032" > PDF=292000 MemberID=32 </weight>
<weight id="1952" MUR="1.0" MUF="1.0" PDF="292033" > PDF=292000 MemberID=33 </weight>
<weight id="1953" MUR="1.0" MUF="1.0" PDF="292034" > PDF=292000 MemberID=34 </weight>
<weight id="1954" MUR="1.0" MUF="1.0" PDF="292035" > PDF=292000 MemberID=35 </weight>
<weight id="1955" MUR="1.0" MUF="1.0" PDF="292036" > PDF=292000 MemberID=36 </weight>
<weight id="1956" MUR="1.0" MUF="1.0" PDF="292037" > PDF=292000 MemberID=37 </weight>
<weight id="1957" MUR="1.0" MUF="1.0" PDF="292038" > PDF=292000 MemberID=38 </weight>
<weight id="1958" MUR="1.0" MUF="1.0" PDF="292039" > PDF=292000 MemberID=39 </weight>
<weight id="1959" MUR="1.0" MUF="1.0" PDF="292040" > PDF=292000 MemberID=40 </weight>
<weight id="1960" MUR="1.0" MUF="1.0" PDF="292041" > PDF=292000 MemberID=41 </weight>
<weight id="1961" MUR="1.0" MUF="1.0" PDF="292042" > PDF=292000 MemberID=42 </weight>
<weight id="1962" MUR="1.0" MUF="1.0" PDF="292043" > PDF=292000 MemberID=43 </weight>
<weight id="1963" MUR="1.0" MUF="1.0" PDF="292044" > PDF=292000 MemberID=44 </weight>
<weight id="1964" MUR="1.0" MUF="1.0" PDF="292045" > PDF=292000 MemberID=45 </weight>
<weight id="1965" MUR="1.0" MUF="1.0" PDF="292046" > PDF=292000 MemberID=46 </weight>
<weight id="1966" MUR="1.0" MUF="1.0" PDF="292047" > PDF=292000 MemberID=47 </weight>
<weight id="1967" MUR="1.0" MUF="1.0" PDF="292048" > PDF=292000 MemberID=48 </weight>
<weight id="1968" MUR="1.0" MUF="1.0" PDF="292049" > PDF=292000 MemberID=49 </weight>
<weight id="1969" MUR="1.0" MUF="1.0" PDF="292050" > PDF=292000 MemberID=50 </weight>
<weight id="1970" MUR="1.0" MUF="1.0" PDF="292051" > PDF=292000 MemberID=51 </weight>
<weight id="1971" MUR="1.0" MUF="1.0" PDF="292052" > PDF=292000 MemberID=52 </weight>
<weight id="1972" MUR="1.0" MUF="1.0" PDF="292053" > PDF=292000 MemberID=53 </weight>
<weight id="1973" MUR="1.0" MUF="1.0" PDF="292054" > PDF=292000 MemberID=54 </weight>
<weight id="1974" MUR="1.0" MUF="1.0" PDF="292055" > PDF=292000 MemberID=55 </weight>
<weight id="1975" MUR="1.0" MUF="1.0" PDF="292056" > PDF=292000 MemberID=56 </weight>
<weight id="1976" MUR="1.0" MUF="1.0" PDF="292057" > PDF=292000 MemberID=57 </weight>
<weight id="1977" MUR="1.0" MUF="1.0" PDF="292058" > PDF=292000 MemberID=58 </weight>
<weight id="1978" MUR="1.0" MUF="1.0" PDF="292059" > PDF=292000 MemberID=59 </weight>
<weight id="1979" MUR="1.0" MUF="1.0" PDF="292060" > PDF=292000 MemberID=60 </weight>
<weight id="1980" MUR="1.0" MUF="1.0" PDF="292061" > PDF=292000 MemberID=61 </weight>
<weight id="1981" MUR="1.0" MUF="1.0" PDF="292062" > PDF=292000 MemberID=62 </weight>
<weight id="1982" MUR="1.0" MUF="1.0" PDF="292063" > PDF=292000 MemberID=63 </weight>
<weight id="1983" MUR="1.0" MUF="1.0" PDF="292064" > PDF=292000 MemberID=64 </weight>
<weight id="1984" MUR="1.0" MUF="1.0" PDF="292065" > PDF=292000 MemberID=65 </weight>
<weight id="1985" MUR="1.0" MUF="1.0" PDF="292066" > PDF=292000 MemberID=66 </weight>
<weight id="1986" MUR="1.0" MUF="1.0" PDF="292067" > PDF=292000 MemberID=67 </weight>
<weight id="1987" MUR="1.0" MUF="1.0" PDF="292068" > PDF=292000 MemberID=68 </weight>
<weight id="1988" MUR="1.0" MUF="1.0" PDF="292069" > PDF=292000 MemberID=69 </weight>
<weight id="1989" MUR="1.0" MUF="1.0" PDF="292070" > PDF=292000 MemberID=70 </weight>
<weight id="1990" MUR="1.0" MUF="1.0" PDF="292071" > PDF=292000 MemberID=71 </weight>
<weight id="1991" MUR="1.0" MUF="1.0" PDF="292072" > PDF=292000 MemberID=72 </weight>
<weight id="1992" MUR="1.0" MUF="1.0" PDF="292073" > PDF=292000 MemberID=73 </weight>
<weight id="1993" MUR="1.0" MUF="1.0" PDF="292074" > PDF=292000 MemberID=74 </weight>
<weight id="1994" MUR="1.0" MUF="1.0" PDF="292075" > PDF=292000 MemberID=75 </weight>
<weight id="1995" MUR="1.0" MUF="1.0" PDF="292076" > PDF=292000 MemberID=76 </weight>
<weight id="1996" MUR="1.0" MUF="1.0" PDF="292077" > PDF=292000 MemberID=77 </weight>
<weight id="1997" MUR="1.0" MUF="1.0" PDF="292078" > PDF=292000 MemberID=78 </weight>
<weight id="1998" MUR="1.0" MUF="1.0" PDF="292079" > PDF=292000 MemberID=79 </weight>
<weight id="1999" MUR="1.0" MUF="1.0" PDF="292080" > PDF=292000 MemberID=80 </weight>
<weight id="2000" MUR="1.0" MUF="1.0" PDF="292081" > PDF=292000 MemberID=81 </weight>
<weight id="2001" MUR="1.0" MUF="1.0" PDF="292082" > PDF=292000 MemberID=82 </weight>
<weight id="2002" MUR="1.0" MUF="1.0" PDF="292083" > PDF=292000 MemberID=83 </weight>
<weight id="2003" MUR="1.0" MUF="1.0" PDF="292084" > PDF=292000 MemberID=84 </weight>
<weight id="2004" MUR="1.0" MUF="1.0" PDF="292085" > PDF=292000 MemberID=85 </weight>
<weight id="2005" MUR="1.0" MUF="1.0" PDF="292086" > PDF=292000 MemberID=86 </weight>
<weight id="2006" MUR="1.0" MUF="1.0" PDF="292087" > PDF=292000 MemberID=87 </weight>
<weight id="2007" MUR="1.0" MUF="1.0" PDF="292088" > PDF=292000 MemberID=88 </weight>
<weight id="2008" MUR="1.0" MUF="1.0" PDF="292089" > PDF=292000 MemberID=89 </weight>
<weight id="2009" MUR="1.0" MUF="1.0" PDF="292090" > PDF=292000 MemberID=90 </weight>
<weight id="2010" MUR="1.0" MUF="1.0" PDF="292091" > PDF=292000 MemberID=91 </weight>
<weight id="2011" MUR="1.0" MUF="1.0" PDF="292092" > PDF=292000 MemberID=92 </weight>
<weight id="2012" MUR="1.0" MUF="1.0" PDF="292093" > PDF=292000 MemberID=93 </weight>
<weight id="2013" MUR="1.0" MUF="1.0" PDF="292094" > PDF=292000 MemberID=94 </weight>
<weight id="2014" MUR="1.0" MUF="1.0" PDF="292095" > PDF=292000 MemberID=95 </weight>
<weight id="2015" MUR="1.0" MUF="1.0" PDF="292096" > PDF=292000 MemberID=96 </weight>
<weight id="2016" MUR="1.0" MUF="1.0" PDF="292097" > PDF=292000 MemberID=97 </weight>
<weight id="2017" MUR="1.0" MUF="1.0" PDF="292098" > PDF=292000 MemberID=98 </weight>
<weight id="2018" MUR="1.0" MUF="1.0" PDF="292099" > PDF=292000 MemberID=99 </weight>
<weight id="2019" MUR="1.0" MUF="1.0" PDF="292100" > PDF=292000 MemberID=100 </weight>
<weight id="2020" MUR="1.0" MUF="1.0" PDF="292101" > PDF=292000 MemberID=101 </weight>
<weight id="2021" MUR="1.0" MUF="1.0" PDF="292102" > PDF=292000 MemberID=102 </weight>
</weightgroup> # PDFSET -> PDF
<weight id="2022" MUR="1.0" MUF="1.0" PDF="292400" > PDF=292400 MemberID=0 </weight>
</initrwgt>
<MGGenerationInfo>
#  Number of Events        :       1000
#  Integrated weight (pb)   : 15.8224032545
</MGGenerationInfo>
<madspin>
set seed 77544695
import /local-scratch/xulyu/genproductions/bin/MadGraph5_aMCatNLO/tZ_b_LH_M600/tZ_b_LH_M600_gridpack/work//unweighted_events.lhe.gz
set ms_dir ./madspingrid
set max_running_process 1
set Nevents_for_max_weigth 250 
set max_weight_ps_point 400  
decay t > w+ b, w+ > all all
decay t~ > w- b~, w- > all all
decay z > all all
launch
</madspin>
</header>
<init>
2212 2212 6.500000e+03 6.500000e+03 0 0 325500 325500 -3 2
 1.010252000000E+01 2.999119000000E-01 1.358172000000E+00 1
 3.479200000000E+00 1.012300000000E-01 1.358172000000E+00 2
<generator name='MadGraph5_aMC@NLO' version='2.6.5'>please cite 1405.0301 </generator>
</init>
<event>
13      2 +1.3581722e+00 2.86519000e+02 7.81860800e-03 1.07929800e-01
        1 -1    0    0  501    0 +0.0000000000e+00 +0.0000000000e+00 +9.5000696361e+02 9.5000696362e+02 5.0400000000e-03 0.0000e+00 -1.0000e+00
       21 -1    0    0  502  503 +0.0000000000e+00 +0.0000000000e+00 -4.0254990114e+02 4.0254990114e+02 0.0000000000e+00 0.0000e+00 -1.0000e+00
 -8000001  2    1    2    0  503 +8.0521403128e+01 -2.4337130519e+01 +5.9583878342e+02 8.4976439672e+02 5.9999973485e+02 0.0000e+00 0.0000e+00
        2  1    1    2  501    0 +4.8913553509e+01 -1.2635677488e+01 +2.0753444243e+02 2.1359480533e+02 2.5500000000e-03 0.0000e+00 -1.0000e+00
        5  1    1    2  502    0 -1.2943495664e+02 +3.6972808007e+01 -2.5591616339e+02 2.8919766271e+02 4.6700000000e+00 0.0000e+00 -1.0000e+00
       -6  2    3    3    0  503 -2.0394628008e+02 -9.5856097036e+01 +3.8832508762e+02 4.8071980940e+02 1.7179256379e+02 0.0000e+00 0.0000e+00
       -5  1    6    6    0  503 -5.9455349176e+01 +2.9915124814e+01 +1.5381928854e+02 1.6766644168e+02 4.6700000000e+00 0.0000e+00 1.0000e+00
      -24  2    6    6    0    0 -1.4449093090e+02 -1.2577122185e+02 +2.3450579908e+02 3.1305336771e+02 7.9456981298e+01 0.0000e+00 0.0000e+00
      -14  1    8    8    0    0 -1.4629180311e+02 -1.3434814815e+02 +2.2473912614e+02 2.9993064430e+02 0.0000000000e+00 0.0000e+00 1.0000e+00
       13  1    8    8    0    0 +1.8008722101e+00 +8.5769263044e+00 +9.7666729348e+00 1.3122723414e+01 1.0566000000e-01 0.0000e+00 -1.0000e+00
       23  2    3    3    0    0 +2.8446768321e+02 +7.1518966517e+01 +2.0751369580e+02 3.6904458732e+02 8.4232702228e+01 0.0000e+00 0.0000e+00
       16  1   11   11    0    0 +1.7005277154e+01 +2.9979840938e+01 +2.5340537469e+01 4.2779821797e+01 0.0000000000e+00 0.0000e+00 -1.0000e+00
      -16  1   11   11    0    0 +2.6746240605e+02 +4.1539125579e+01 +1.8217315834e+02 3.2626476553e+02 0.0000000000e+00 0.0000e+00 1.0000e+00
<mgrwt>
<rscale>  1 0.12031098e+03</rscale>
<asrwt>0</asrwt>
<pdfrwt beam="1">  1       21 0.61930754e-01 0.28651904e+03</pdfrwt>
<pdfrwt beam="2">  1        1 0.14615492e+00 0.50519264e+02</pdfrwt>
<totfact> 0.56576187e+02</totfact>
</mgrwt>
<rwgt>
<wgt id='1001'> +1.3581722e+00 </wgt>
<wgt id='1002'> +8.5877943e-01 </wgt>
<wgt id='1003'> +8.5872851e-01 </wgt>
<wgt id='1004'> +1.0096747e+00 </wgt>
<wgt id='1005'> +7.7229835e-01 </wgt>
<wgt id='1006'> +1.2295919e+00 </wgt>
<wgt id='1007'> +7.9449311e-01 </wgt>
<wgt id='1008'> +7.9444791e-01 </wgt>
<wgt id='1009'> +9.2768609e-01 </wgt>
<wgt id='1010'> +7.1745703e-01 </wgt>
<wgt id='1011'> +1.5178808e+00 </wgt>
<wgt id='1012'> +9.3468074e-01 </wgt>
<wgt id='1013'> +9.3462267e-01 </wgt>
<wgt id='1014'> +1.1080268e+00 </wgt>
<wgt id='1015'> +8.3644058e-01 </wgt>
<wgt id='1016'> +1.2457191e+00 </wgt>
<wgt id='1017'> +7.9808507e-01 </wgt>
<wgt id='1018'> +7.9803882e-01 </wgt>
<wgt id='1019'> +9.3462267e-01 </wgt>
<wgt id='1020'> +7.1969001e-01 </wgt>
<wgt id='1021'> +1.1277849e+00 </wgt>
<wgt id='1022'> +7.3834220e-01 </wgt>
<wgt id='1023'> +7.3830118e-01 </wgt>
<wgt id='1024'> +8.5872851e-01 </wgt>
<wgt id='1025'> +6.6858443e-01 </wgt>
<wgt id='1026'> +1.3922042e+00 </wgt>
<wgt id='1027'> +8.6862205e-01 </wgt>
<wgt id='1028'> +8.6856925e-01 </wgt>
<wgt id='1029'> +1.0256640e+00 </wgt>
<wgt id='1030'> +7.7946291e-01 </wgt>
<wgt id='1031'> +1.4895082e+00 </wgt>
<wgt id='1032'> +9.2774270e-01 </wgt>
<wgt id='1033'> +9.2768609e-01 </wgt>
<wgt id='1034'> +1.0955048e+00 </wgt>
<wgt id='1035'> +8.3190717e-01 </wgt>
<wgt id='1036'> +1.3484941e+00 </wgt>
<wgt id='1037'> +8.5829395e-01 </wgt>
<wgt id='1038'> +8.5824363e-01 </wgt>
<wgt id='1039'> +1.0065465e+00 </wgt>
<wgt id='1040'> +7.7283299e-01 </wgt>
<wgt id='1041'> +1.6646606e+00 </wgt>
<wgt id='1042'> +1.0097392e+00 </wgt>
<wgt id='1043'> +1.0096747e+00 </wgt>
<wgt id='1044'> +1.2022176e+00 </wgt>
<wgt id='1045'> +9.0100013e-01 </wgt>
<wgt id='1046'> +1.3581722e+00 </wgt>
<wgt id='1047'> +1.3581722e+00 </wgt>
<wgt id='1048'> +1.3581722e+00 </wgt>
<wgt id='1049'> +1.3613903e+00 </wgt>
<wgt id='1050'> +1.3588430e+00 </wgt>
<wgt id='1051'> +1.3620548e+00 </wgt>
<wgt id='1052'> +1.3574234e+00 </wgt>
<wgt id='1053'> +1.3603359e+00 </wgt>
<wgt id='1054'> +1.3564333e+00 </wgt>
<wgt id='1055'> +1.3491830e+00 </wgt>
<wgt id='1056'> +1.3530640e+00 </wgt>
<wgt id='1057'> +1.3547735e+00 </wgt>
<wgt id='1058'> +1.3582512e+00 </wgt>
<wgt id='1059'> +1.3599302e+00 </wgt>
<wgt id='1060'> +1.3570496e+00 </wgt>
<wgt id='1061'> +1.3600161e+00 </wgt>
<wgt id='1062'> +1.3613274e+00 </wgt>
<wgt id='1063'> +1.3584197e+00 </wgt>
<wgt id='1064'> +1.3574486e+00 </wgt>
<wgt id='1065'> +1.3651557e+00 </wgt>
<wgt id='1066'> +1.3496247e+00 </wgt>
<wgt id='1067'> +1.3606951e+00 </wgt>
<wgt id='1068'> +1.3602336e+00 </wgt>
<wgt id='1069'> +1.3546223e+00 </wgt>
<wgt id='1070'> +1.3582650e+00 </wgt>
<wgt id='1071'> +1.3546614e+00 </wgt>
<wgt id='1072'> +1.3614469e+00 </wgt>
<wgt id='1073'> +1.3562650e+00 </wgt>
<wgt id='1074'> +1.3609312e+00 </wgt>
<wgt id='1075'> +1.3544850e+00 </wgt>
<wgt id='1076'> +1.3600810e+00 </wgt>
<wgt id='1077'> +1.3645530e+00 </wgt>
<wgt id='1078'> +1.3550045e+00 </wgt>
<wgt id='1079'> +1.3687510e+00 </wgt>
<wgt id='1080'> +1.3619081e+00 </wgt>
<wgt id='1081'> +1.3634945e+00 </wgt>
<wgt id='1082'> +1.3617631e+00 </wgt>
<wgt id='1083'> +1.3551062e+00 </wgt>
<wgt id='1084'> +1.3507571e+00 </wgt>
<wgt id='1085'> +1.3658261e+00 </wgt>
<wgt id='1086'> +1.3533741e+00 </wgt>
<wgt id='1087'> +1.3554784e+00 </wgt>
<wgt id='1088'> +1.3574832e+00 </wgt>
<wgt id='1089'> +1.3589563e+00 </wgt>
<wgt id='1090'> +1.3609760e+00 </wgt>
<wgt id='1091'> +1.3563750e+00 </wgt>
<wgt id='1092'> +1.3564514e+00 </wgt>
<wgt id='1093'> +1.3619112e+00 </wgt>
<wgt id='1094'> +1.3571599e+00 </wgt>
<wgt id='1095'> +1.3576856e+00 </wgt>
<wgt id='1096'> +1.3556892e+00 </wgt>
<wgt id='1097'> +1.3540326e+00 </wgt>
<wgt id='1098'> +1.3539748e+00 </wgt>
<wgt id='1099'> +1.3565623e+00 </wgt>
<wgt id='1100'> +1.3567205e+00 </wgt>
<wgt id='1101'> +1.3597609e+00 </wgt>
<wgt id='1102'> +1.3596034e+00 </wgt>
<wgt id='1103'> +1.3637140e+00 </wgt>
<wgt id='1104'> +1.3543163e+00 </wgt>
<wgt id='1105'> +1.3579892e+00 </wgt>
<wgt id='1106'> +1.3628523e+00 </wgt>
<wgt id='1107'> +1.3569758e+00 </wgt>
<wgt id='1108'> +1.3575588e+00 </wgt>
<wgt id='1109'> +1.3627944e+00 </wgt>
<wgt id='1110'> +1.3617397e+00 </wgt>
<wgt id='1111'> +1.3577873e+00 </wgt>
<wgt id='1112'> +1.3578737e+00 </wgt>
<wgt id='1113'> +1.3591512e+00 </wgt>
<wgt id='1114'> +1.3570827e+00 </wgt>
<wgt id='1115'> +1.3581442e+00 </wgt>
<wgt id='1116'> +1.3608523e+00 </wgt>
<wgt id='1117'> +1.3581511e+00 </wgt>
<wgt id='1118'> +1.3583606e+00 </wgt>
<wgt id='1119'> +1.3589187e+00 </wgt>
<wgt id='1120'> +1.3573236e+00 </wgt>
<wgt id='1121'> +1.3589279e+00 </wgt>
<wgt id='1122'> +1.3578431e+00 </wgt>
<wgt id='1123'> +1.3562757e+00 </wgt>
<wgt id='1124'> +1.3566721e+00 </wgt>
<wgt id='1125'> +1.3602779e+00 </wgt>
<wgt id='1126'> +1.3573994e+00 </wgt>
<wgt id='1127'> +1.3564602e+00 </wgt>
<wgt id='1128'> +1.3593109e+00 </wgt>
<wgt id='1129'> +1.3582300e+00 </wgt>
<wgt id='1130'> +1.3586769e+00 </wgt>
<wgt id='1131'> +1.3603643e+00 </wgt>
<wgt id='1132'> +1.3579787e+00 </wgt>
<wgt id='1133'> +1.3583987e+00 </wgt>
<wgt id='1134'> +1.3577353e+00 </wgt>
<wgt id='1135'> +1.3595323e+00 </wgt>
<wgt id='1136'> +1.3587509e+00 </wgt>
<wgt id='1137'> +1.3584606e+00 </wgt>
<wgt id='1138'> +1.3587366e+00 </wgt>
<wgt id='1139'> +1.3584913e+00 </wgt>
<wgt id='1140'> +1.3593817e+00 </wgt>
<wgt id='1141'> +1.3580546e+00 </wgt>
<wgt id='1142'> +1.3597704e+00 </wgt>
<wgt id='1143'> +1.3582117e+00 </wgt>
<wgt id='1144'> +1.3578555e+00 </wgt>
<wgt id='1145'> +1.3580582e+00 </wgt>
<wgt id='1146'> +1.3576921e+00 </wgt>
<wgt id='1147'> +1.3588529e+00 </wgt>
<wgt id='1148'> +1.3581722e+00 </wgt>
<wgt id='1149'> +1.3017525e+00 </wgt>
<wgt id='1150'> +1.3153184e+00 </wgt>
<wgt id='1151'> +1.3031133e+00 </wgt>
<wgt id='1152'> +1.2910063e+00 </wgt>
<wgt id='1153'> +1.2725425e+00 </wgt>
<wgt id='1154'> +1.3121493e+00 </wgt>
<wgt id='1155'> +1.3462077e+00 </wgt>
<wgt id='1156'> +1.3047590e+00 </wgt>
<wgt id='1157'> +1.3037769e+00 </wgt>
<wgt id='1158'> +1.3384350e+00 </wgt>
<wgt id='1159'> +1.2266749e+00 </wgt>
<wgt id='1160'> +1.2675913e+00 </wgt>
<wgt id='1161'> +1.3172321e+00 </wgt>
<wgt id='1162'> +1.2623500e+00 </wgt>
<wgt id='1163'> +1.3099171e+00 </wgt>
<wgt id='1164'> +1.3108381e+00 </wgt>
<wgt id='1165'> +1.2874225e+00 </wgt>
<wgt id='1166'> +1.2965611e+00 </wgt>
<wgt id='1167'> +1.3287260e+00 </wgt>
<wgt id='1168'> +1.2883961e+00 </wgt>
<wgt id='1169'> +1.2832951e+00 </wgt>
<wgt id='1170'> +1.3270771e+00 </wgt>
<wgt id='1171'> +1.3237040e+00 </wgt>
<wgt id='1172'> +1.3099050e+00 </wgt>
<wgt id='1173'> +1.2863855e+00 </wgt>
<wgt id='1174'> +1.3246787e+00 </wgt>
<wgt id='1175'> +1.3051942e+00 </wgt>
<wgt id='1176'> +1.2180899e+00 </wgt>
<wgt id='1177'> +1.3300013e+00 </wgt>
<wgt id='1178'> +1.2708426e+00 </wgt>
<wgt id='1179'> +1.2942909e+00 </wgt>
<wgt id='1180'> +1.3230231e+00 </wgt>
<wgt id='1181'> +1.3261170e+00 </wgt>
<wgt id='1182'> +1.3547293e+00 </wgt>
<wgt id='1183'> +1.3156849e+00 </wgt>
<wgt id='1184'> +1.2905906e+00 </wgt>
<wgt id='1185'> +1.3452769e+00 </wgt>
<wgt id='1186'> +1.2923212e+00 </wgt>
<wgt id='1187'> +1.2830729e+00 </wgt>
<wgt id='1188'> +1.2816434e+00 </wgt>
<wgt id='1189'> +1.3078428e+00 </wgt>
<wgt id='1190'> +1.2941508e+00 </wgt>
<wgt id='1191'> +1.3326888e+00 </wgt>
<wgt id='1192'> +1.3013757e+00 </wgt>
<wgt id='1193'> +1.2910726e+00 </wgt>
<wgt id='1194'> +1.2458361e+00 </wgt>
<wgt id='1195'> +1.3131854e+00 </wgt>
<wgt id='1196'> +1.3386503e+00 </wgt>
<wgt id='1197'> +1.2897285e+00 </wgt>
<wgt id='1198'> +1.3153733e+00 </wgt>
<wgt id='1199'> +1.3008243e+00 </wgt>
<wgt id='1200'> +1.3029415e+00 </wgt>
<wgt id='1201'> +1.3278577e+00 </wgt>
<wgt id='1202'> +1.3033453e+00 </wgt>
<wgt id='1203'> +1.3164157e+00 </wgt>
<wgt id='1204'> +1.3093034e+00 </wgt>
<wgt id='1205'> +1.3000662e+00 </wgt>
<wgt id='1206'> +1.3200734e+00 </wgt>
<wgt id='1207'> +1.3590428e+00 </wgt>
<wgt id='1208'> +1.2779858e+00 </wgt>
<wgt id='1209'> +1.3387505e+00 </wgt>
<wgt id='1210'> +1.3111941e+00 </wgt>
<wgt id='1211'> +1.3279226e+00 </wgt>
<wgt id='1212'> +1.2807367e+00 </wgt>
<wgt id='1213'> +1.3162651e+00 </wgt>
<wgt id='1214'> +1.3083027e+00 </wgt>
<wgt id='1215'> +1.2714350e+00 </wgt>
<wgt id='1216'> +1.2890963e+00 </wgt>
<wgt id='1217'> +1.3055487e+00 </wgt>
<wgt id='1218'> +1.3060656e+00 </wgt>
<wgt id='1219'> +1.3065456e+00 </wgt>
<wgt id='1220'> +1.3215512e+00 </wgt>
<wgt id='1221'> +1.2186120e+00 </wgt>
<wgt id='1222'> +1.3051876e+00 </wgt>
<wgt id='1223'> +1.2624809e+00 </wgt>
<wgt id='1224'> +1.2901831e+00 </wgt>
<wgt id='1225'> +1.2965499e+00 </wgt>
<wgt id='1226'> +1.3108949e+00 </wgt>
<wgt id='1227'> +1.3348974e+00 </wgt>
<wgt id='1228'> +1.3341507e+00 </wgt>
<wgt id='1229'> +1.2834695e+00 </wgt>
<wgt id='1230'> +1.3211512e+00 </wgt>
<wgt id='1231'> +1.2874225e+00 </wgt>
<wgt id='1232'> +1.2108894e+00 </wgt>
<wgt id='1233'> +1.2900287e+00 </wgt>
<wgt id='1234'> +1.3082972e+00 </wgt>
<wgt id='1235'> +1.3294686e+00 </wgt>
<wgt id='1236'> +1.3238650e+00 </wgt>
<wgt id='1237'> +1.3047554e+00 </wgt>
<wgt id='1238'> +1.1943607e+00 </wgt>
<wgt id='1239'> +1.3482625e+00 </wgt>
<wgt id='1240'> +1.3336128e+00 </wgt>
<wgt id='1241'> +1.2898667e+00 </wgt>
<wgt id='1242'> +1.2698497e+00 </wgt>
<wgt id='1243'> +1.3024469e+00 </wgt>
<wgt id='1244'> +1.3107116e+00 </wgt>
<wgt id='1245'> +1.3236701e+00 </wgt>
<wgt id='1246'> +1.2811383e+00 </wgt>
<wgt id='1247'> +1.2907904e+00 </wgt>
<wgt id='1248'> +1.3106196e+00 </wgt>
<wgt id='1249'> +1.3007137e+00 </wgt>
<wgt id='1250'> +1.3149410e+00 </wgt>
<wgt id='1251'> +1.2975287e+00 </wgt>
<wgt id='1252'> +1.3257259e+00 </wgt>
<wgt id='1253'> +1.3287299e+00 </wgt>
<wgt id='1254'> +1.2308609e+00 </wgt>
<wgt id='1255'> +1.3079412e+00 </wgt>
<wgt id='1256'> +1.3071860e+00 </wgt>
<wgt id='1257'> +1.3082898e+00 </wgt>
<wgt id='1258'> +1.3129845e+00 </wgt>
<wgt id='1259'> +1.3054015e+00 </wgt>
<wgt id='1260'> +1.3069287e+00 </wgt>
<wgt id='1261'> +1.3092775e+00 </wgt>
<wgt id='1262'> +1.3077892e+00 </wgt>
<wgt id='1263'> +1.3080204e+00 </wgt>
<wgt id='1264'> +1.3235880e+00 </wgt>
<wgt id='1265'> +1.2971481e+00 </wgt>
<wgt id='1266'> +1.3077322e+00 </wgt>
<wgt id='1267'> +1.3081711e+00 </wgt>
<wgt id='1268'> +1.3142429e+00 </wgt>
<wgt id='1269'> +1.3015978e+00 </wgt>
<wgt id='1270'> +1.3012106e+00 </wgt>
<wgt id='1271'> +1.3143077e+00 </wgt>
<wgt id='1272'> +1.3152564e+00 </wgt>
<wgt id='1273'> +1.3011239e+00 </wgt>
<wgt id='1274'> +1.3050788e+00 </wgt>
<wgt id='1275'> +1.3110693e+00 </wgt>
<wgt id='1276'> +1.3113920e+00 </wgt>
<wgt id='1277'> +1.3037153e+00 </wgt>
<wgt id='1278'> +1.2948111e+00 </wgt>
<wgt id='1279'> +1.3182943e+00 </wgt>
<wgt id='1280'> +1.3087463e+00 </wgt>
<wgt id='1281'> +1.3019011e+00 </wgt>
<wgt id='1282'> +1.3129319e+00 </wgt>
<wgt id='1283'> +1.2995000e+00 </wgt>
<wgt id='1284'> +1.3033675e+00 </wgt>
<wgt id='1285'> +1.3059128e+00 </wgt>
<wgt id='1286'> +1.3024235e+00 </wgt>
<wgt id='1287'> +1.3080849e+00 </wgt>
<wgt id='1288'> +1.3081051e+00 </wgt>
<wgt id='1289'> +1.3071036e+00 </wgt>
<wgt id='1290'> +1.3113247e+00 </wgt>
<wgt id='1291'> +1.3067075e+00 </wgt>
<wgt id='1292'> +1.3147932e+00 </wgt>
<wgt id='1293'> +1.2988706e+00 </wgt>
<wgt id='1294'> +1.3026368e+00 </wgt>
<wgt id='1295'> +1.3070895e+00 </wgt>
<wgt id='1296'> +1.3381339e+00 </wgt>
<wgt id='1297'> +1.3413216e+00 </wgt>
<wgt id='1298'> +1.3355696e+00 </wgt>
<wgt id='1299'> +1.3403234e+00 </wgt>
<wgt id='1300'> +1.3357040e+00 </wgt>
<wgt id='1301'> +1.3370243e+00 </wgt>
<wgt id='1302'> +1.3397488e+00 </wgt>
<wgt id='1303'> +1.3442214e+00 </wgt>
<wgt id='1304'> +1.3340187e+00 </wgt>
<wgt id='1305'> +1.3383873e+00 </wgt>
<wgt id='1306'> +1.3378329e+00 </wgt>
<wgt id='1307'> +1.3396760e+00 </wgt>
<wgt id='1308'> +1.3371880e+00 </wgt>
<wgt id='1309'> +1.3279241e+00 </wgt>
<wgt id='1310'> +1.3519595e+00 </wgt>
<wgt id='1311'> +1.3413939e+00 </wgt>
<wgt id='1312'> +1.3369473e+00 </wgt>
<wgt id='1313'> +1.3329258e+00 </wgt>
<wgt id='1314'> +1.3443560e+00 </wgt>
<wgt id='1315'> +1.3285171e+00 </wgt>
<wgt id='1316'> +1.3454759e+00 </wgt>
<wgt id='1317'> +1.3316579e+00 </wgt>
<wgt id='1318'> +1.3499547e+00 </wgt>
<wgt id='1319'> +1.3339973e+00 </wgt>
<wgt id='1320'> +1.3402812e+00 </wgt>
<wgt id='1321'> +1.3258995e+00 </wgt>
<wgt id='1322'> +1.3437869e+00 </wgt>
<wgt id='1323'> +1.3236200e+00 </wgt>
<wgt id='1324'> +1.3293589e+00 </wgt>
<wgt id='1325'> +1.3389459e+00 </wgt>
<wgt id='1326'> +1.3332382e+00 </wgt>
<wgt id='1327'> +1.3338108e+00 </wgt>
<wgt id='1328'> +1.3396872e+00 </wgt>
<wgt id='1329'> +1.3362561e+00 </wgt>
<wgt id='1330'> +1.3390251e+00 </wgt>
<wgt id='1331'> +1.3395599e+00 </wgt>
<wgt id='1332'> +1.3352694e+00 </wgt>
<wgt id='1333'> +1.3485545e+00 </wgt>
<wgt id='1334'> +1.3304749e+00 </wgt>
<wgt id='1335'> +1.3458756e+00 </wgt>
<wgt id='1336'> +1.3352149e+00 </wgt>
<wgt id='1337'> +1.3381339e+00 </wgt>
<wgt id='1338'> +1.3394372e+00 </wgt>
<wgt id='1339'> +1.3389733e+00 </wgt>
<wgt id='1340'> +1.3385013e+00 </wgt>
<wgt id='1341'> +1.3375863e+00 </wgt>
<wgt id='1342'> +1.3372102e+00 </wgt>
<wgt id='1343'> +1.3367670e+00 </wgt>
<wgt id='1344'> +1.3459845e+00 </wgt>
<wgt id='1345'> +1.3497599e+00 </wgt>
<wgt id='1346'> +1.3422345e+00 </wgt>
<wgt id='1347'> +1.3441818e+00 </wgt>
<wgt id='1348'> +1.3472602e+00 </wgt>
<wgt id='1349'> +1.3503952e+00 </wgt>
<wgt id='1350'> +1.3421655e+00 </wgt>
<wgt id='1351'> +1.3457785e+00 </wgt>
<wgt id='1352'> +1.3462576e+00 </wgt>
<wgt id='1353'> +1.3486456e+00 </wgt>
<wgt id='1354'> +1.3439795e+00 </wgt>
<wgt id='1355'> +1.3590343e+00 </wgt>
<wgt id='1356'> +1.3357217e+00 </wgt>
<wgt id='1357'> +1.3527346e+00 </wgt>
<wgt id='1358'> +1.3419165e+00 </wgt>
<wgt id='1359'> +1.3438255e+00 </wgt>
<wgt id='1360'> +1.3516141e+00 </wgt>
<wgt id='1361'> +1.3419210e+00 </wgt>
<wgt id='1362'> +1.3505532e+00 </wgt>
<wgt id='1363'> +1.3541930e+00 </wgt>
<wgt id='1364'> +1.3328795e+00 </wgt>
<wgt id='1365'> +1.3388362e+00 </wgt>
<wgt id='1366'> +1.3486942e+00 </wgt>
<wgt id='1367'> +1.3314057e+00 </wgt>
<wgt id='1368'> +1.3523703e+00 </wgt>
<wgt id='1369'> +1.3445199e+00 </wgt>
<wgt id='1370'> +1.3453822e+00 </wgt>
<wgt id='1371'> +1.3421482e+00 </wgt>
<wgt id='1372'> +1.3307075e+00 </wgt>
<wgt id='1373'> +1.3541693e+00 </wgt>
<wgt id='1374'> +1.3439634e+00 </wgt>
<wgt id='1375'> +1.3397385e+00 </wgt>
<wgt id='1376'> +1.3471184e+00 </wgt>
<wgt id='1377'> +1.3459636e+00 </wgt>
<wgt id='1378'> +1.3463266e+00 </wgt>
<wgt id='1379'> +1.3401210e+00 </wgt>
<wgt id='1380'> +1.3478735e+00 </wgt>
<wgt id='1381'> +1.3359225e+00 </wgt>
<wgt id='1382'> +1.3525949e+00 </wgt>
<wgt id='1383'> +1.3424319e+00 </wgt>
<wgt id='1384'> +1.3552956e+00 </wgt>
<wgt id='1385'> +1.3459845e+00 </wgt>
<wgt id='1386'> +1.3471285e+00 </wgt>
<wgt id='1387'> +1.3467565e+00 </wgt>
<wgt id='1388'> +1.3463331e+00 </wgt>
<wgt id='1389'> +1.3454148e+00 </wgt>
<wgt id='1390'> +1.3449653e+00 </wgt>
<wgt id='1391'> +1.3444293e+00 </wgt>
<wgt id='1392'> +1.4031683e+00 </wgt>
<wgt id='1393'> +1.4029806e+00 </wgt>
<wgt id='1394'> +1.4034837e+00 </wgt>
<wgt id='1395'> +1.4049084e+00 </wgt>
<wgt id='1396'> +1.4019410e+00 </wgt>
<wgt id='1397'> +1.4073817e+00 </wgt>
<wgt id='1398'> +1.3991167e+00 </wgt>
<wgt id='1399'> +1.4000550e+00 </wgt>
<wgt id='1400'> +1.4071484e+00 </wgt>
<wgt id='1401'> +1.4034953e+00 </wgt>
<wgt id='1402'> +1.4028209e+00 </wgt>
<wgt id='1403'> +1.4001654e+00 </wgt>
<wgt id='1404'> +1.4093427e+00 </wgt>
<wgt id='1405'> +1.4084735e+00 </wgt>
<wgt id='1406'> +1.3958705e+00 </wgt>
<wgt id='1407'> +1.4078028e+00 </wgt>
<wgt id='1408'> +1.4000305e+00 </wgt>
<wgt id='1409'> +1.4054131e+00 </wgt>
<wgt id='1410'> +1.4007142e+00 </wgt>
<wgt id='1411'> +1.3969122e+00 </wgt>
<wgt id='1412'> +1.4080503e+00 </wgt>
<wgt id='1413'> +1.4134464e+00 </wgt>
<wgt id='1414'> +1.3921983e+00 </wgt>
<wgt id='1415'> +1.4120851e+00 </wgt>
<wgt id='1416'> +1.3943581e+00 </wgt>
<wgt id='1417'> +1.3947852e+00 </wgt>
<wgt id='1418'> +1.4135902e+00 </wgt>
<wgt id='1419'> +1.3954552e+00 </wgt>
<wgt id='1420'> +1.3986933e+00 </wgt>
<wgt id='1421'> +1.4041120e+00 </wgt>
<wgt id='1422'> +1.4019300e+00 </wgt>
<wgt id='1423'> +1.4086948e+00 </wgt>
<wgt id='1424'> +1.3987503e+00 </wgt>
<wgt id='1425'> +1.4024406e+00 </wgt>
<wgt id='1426'> +1.4036238e+00 </wgt>
<wgt id='1427'> +1.4055577e+00 </wgt>
<wgt id='1428'> +1.3960493e+00 </wgt>
<wgt id='1429'> +1.4030986e+00 </wgt>
<wgt id='1430'> +1.4010283e+00 </wgt>
<wgt id='1431'> +1.3969931e+00 </wgt>
<wgt id='1432'> +1.4086452e+00 </wgt>
<wgt id='1433'> +1.3813961e+00 </wgt>
<wgt id='1434'> +1.4285570e+00 </wgt>
<wgt id='1435'> +1.3992405e+00 </wgt>
<wgt id='1436'> +1.4015960e+00 </wgt>
<wgt id='1437'> +1.3977637e+00 </wgt>
<wgt id='1438'> +1.4176155e+00 </wgt>
<wgt id='1439'> +1.4113948e+00 </wgt>
<wgt id='1440'> +1.3902392e+00 </wgt>
<wgt id='1441'> +1.4058229e+00 </wgt>
<wgt id='1442'> +1.3972014e+00 </wgt>
<wgt id='1443'> +1.3964178e+00 </wgt>
<wgt id='1444'> +1.3962266e+00 </wgt>
<wgt id='1445'> +1.3966687e+00 </wgt>
<wgt id='1446'> +1.3982795e+00 </wgt>
<wgt id='1447'> +1.3951638e+00 </wgt>
<wgt id='1448'> +1.4006920e+00 </wgt>
<wgt id='1449'> +1.3924358e+00 </wgt>
<wgt id='1450'> +1.3929577e+00 </wgt>
<wgt id='1451'> +1.4003839e+00 </wgt>
<wgt id='1452'> +1.3970890e+00 </wgt>
<wgt id='1453'> +1.3958293e+00 </wgt>
<wgt id='1454'> +1.3938963e+00 </wgt>
<wgt id='1455'> +1.4019259e+00 </wgt>
<wgt id='1456'> +1.4031554e+00 </wgt>
<wgt id='1457'> +1.3844733e+00 </wgt>
<wgt id='1458'> +1.4001513e+00 </wgt>
<wgt id='1459'> +1.3943113e+00 </wgt>
<wgt id='1460'> +1.3972835e+00 </wgt>
<wgt id='1461'> +1.3954547e+00 </wgt>
<wgt id='1462'> +1.3901478e+00 </wgt>
<wgt id='1463'> +1.4018916e+00 </wgt>
<wgt id='1464'> +1.4053389e+00 </wgt>
<wgt id='1465'> +1.3846235e+00 </wgt>
<wgt id='1466'> +1.4088077e+00 </wgt>
<wgt id='1467'> +1.3883449e+00 </wgt>
<wgt id='1468'> +1.4034455e+00 </wgt>
<wgt id='1469'> +1.3896774e+00 </wgt>
<wgt id='1470'> +1.3892716e+00 </wgt>
<wgt id='1471'> +1.3931502e+00 </wgt>
<wgt id='1472'> +1.3965116e+00 </wgt>
<wgt id='1473'> +1.3959232e+00 </wgt>
<wgt id='1474'> +1.4005100e+00 </wgt>
<wgt id='1475'> +1.3911899e+00 </wgt>
<wgt id='1476'> +1.3944334e+00 </wgt>
<wgt id='1477'> +1.3979551e+00 </wgt>
<wgt id='1478'> +1.3990199e+00 </wgt>
<wgt id='1479'> +1.3886786e+00 </wgt>
<wgt id='1480'> +1.3980366e+00 </wgt>
<wgt id='1481'> +1.3946750e+00 </wgt>
<wgt id='1482'> +1.3902604e+00 </wgt>
<wgt id='1483'> +1.4026752e+00 </wgt>
<wgt id='1484'> +1.3743743e+00 </wgt>
<wgt id='1485'> +1.4208843e+00 </wgt>
<wgt id='1486'> +1.3975432e+00 </wgt>
<wgt id='1487'> +1.3930253e+00 </wgt>
<wgt id='1488'> +1.3900838e+00 </wgt>
<wgt id='1489'> +1.4124875e+00 </wgt>
<wgt id='1490'> +1.4038750e+00 </wgt>
<wgt id='1491'> +1.3837538e+00 </wgt>
<wgt id='1492'> +1.3998939e+00 </wgt>
<wgt id='1493'> +1.3887801e+00 </wgt>
<wgt id='1494'> +1.3391289e+00 </wgt>
<wgt id='1495'> +1.3294320e+00 </wgt>
<wgt id='1496'> +1.3338690e+00 </wgt>
<wgt id='1497'> +1.3364475e+00 </wgt>
<wgt id='1498'> +1.3428033e+00 </wgt>
<wgt id='1499'> +1.3393993e+00 </wgt>
<wgt id='1500'> +1.3397023e+00 </wgt>
<wgt id='1501'> +1.3403193e+00 </wgt>
<wgt id='1502'> +1.3406941e+00 </wgt>
<wgt id='1503'> +1.3404361e+00 </wgt>
<wgt id='1504'> +1.3400968e+00 </wgt>
<wgt id='1505'> +1.3390863e+00 </wgt>
<wgt id='1506'> +1.3382869e+00 </wgt>
<wgt id='1507'> +1.3375111e+00 </wgt>
<wgt id='1508'> +1.3393993e+00 </wgt>
<wgt id='1509'> +1.3412206e+00 </wgt>
<wgt id='1510'> +1.3402506e+00 </wgt>
<wgt id='1511'> +1.3386828e+00 </wgt>
<wgt id='1512'> +1.3381559e+00 </wgt>
<wgt id='1513'> +1.3593840e+00 </wgt>
<wgt id='1514'> +1.3586251e+00 </wgt>
<wgt id='1515'> +1.3604640e+00 </wgt>
<wgt id='1516'> +1.3609423e+00 </wgt>
<wgt id='1517'> +1.3579249e+00 </wgt>
<wgt id='1518'> +1.3632193e+00 </wgt>
<wgt id='1519'> +1.3578683e+00 </wgt>
<wgt id='1520'> +1.3586991e+00 </wgt>
<wgt id='1521'> +1.3601369e+00 </wgt>
<wgt id='1522'> +1.3614819e+00 </wgt>
<wgt id='1523'> +1.3573650e+00 </wgt>
<wgt id='1524'> +1.3650516e+00 </wgt>
<wgt id='1525'> +1.3569752e+00 </wgt>
<wgt id='1526'> +1.3611069e+00 </wgt>
<wgt id='1527'> +1.3573348e+00 </wgt>
<wgt id='1528'> +1.3679580e+00 </wgt>
<wgt id='1529'> +1.3501602e+00 </wgt>
<wgt id='1530'> +1.3623950e+00 </wgt>
<wgt id='1531'> +1.3577360e+00 </wgt>
<wgt id='1532'> +1.3602238e+00 </wgt>
<wgt id='1533'> +1.3582828e+00 </wgt>
<wgt id='1534'> +1.3448307e+00 </wgt>
<wgt id='1535'> +1.3694838e+00 </wgt>
<wgt id='1536'> +1.3500864e+00 </wgt>
<wgt id='1537'> +1.3682092e+00 </wgt>
<wgt id='1538'> +1.3555160e+00 </wgt>
<wgt id='1539'> +1.3691790e+00 </wgt>
<wgt id='1540'> +1.3548848e+00 </wgt>
<wgt id='1541'> +1.3530167e+00 </wgt>
<wgt id='1542'> +1.3584447e+00 </wgt>
<wgt id='1543'> +1.3628309e+00 </wgt>
<wgt id='1544'> +1.3618448e+00 </wgt>
<wgt id='1545'> +1.3524485e+00 </wgt>
<wgt id='1546'> +1.3608991e+00 </wgt>
<wgt id='1547'> +1.3545129e+00 </wgt>
<wgt id='1548'> +1.3526230e+00 </wgt>
<wgt id='1549'> +1.3606185e+00 </wgt>
<wgt id='1550'> +1.3574327e+00 </wgt>
<wgt id='1551'> +1.3503501e+00 </wgt>
<wgt id='1552'> +1.3519966e+00 </wgt>
<wgt id='1553'> +1.3641264e+00 </wgt>
<wgt id='1554'> +1.3729103e+00 </wgt>
<wgt id='1555'> +1.3352217e+00 </wgt>
<wgt id='1556'> +1.3581359e+00 </wgt>
<wgt id='1557'> +1.3539310e+00 </wgt>
<wgt id='1558'> +1.3465429e+00 </wgt>
<wgt id='1559'> +1.3701156e+00 </wgt>
<wgt id='1560'> +1.3730259e+00 </wgt>
<wgt id='1561'> +1.3534311e+00 </wgt>
<wgt id='1562'> +1.3534449e+00 </wgt>
<wgt id='1563'> +1.3632935e+00 </wgt>
<wgt id='1564'> +1.3593840e+00 </wgt>
<wgt id='1565'> +1.3553763e+00 </wgt>
<wgt id='1566'> +1.3620944e+00 </wgt>
<wgt id='1567'> +1.3579115e+00 </wgt>
<wgt id='1568'> +1.3598869e+00 </wgt>
<wgt id='1569'> +1.3603941e+00 </wgt>
<wgt id='1570'> +1.3598400e+00 </wgt>
<wgt id='1571'> +1.3588515e+00 </wgt>
<wgt id='1572'> +1.3588990e+00 </wgt>
<wgt id='1573'> +1.3564385e+00 </wgt>
<wgt id='1574'> +1.3541308e+00 </wgt>
<wgt id='1575'> +1.3527499e+00 </wgt>
<wgt id='1576'> +1.3579115e+00 </wgt>
<wgt id='1577'> +1.3593075e+00 </wgt>
<wgt id='1578'> +1.3585449e+00 </wgt>
<wgt id='1579'> +1.3574542e+00 </wgt>
<wgt id='1580'> +1.3570487e+00 </wgt>
<wgt id='1581'> +1.3414208e+00 </wgt>
<wgt id='1582'> +1.3425891e+00 </wgt>
<wgt id='1583'> +1.3603434e+00 </wgt>
<wgt id='1584'> +1.3346086e+00 </wgt>
<wgt id='1585'> +1.3455082e+00 </wgt>
<wgt id='1586'> +1.3281352e+00 </wgt>
<wgt id='1587'> +1.3344077e+00 </wgt>
<wgt id='1588'> +1.3460047e+00 </wgt>
<wgt id='1589'> +1.3398169e+00 </wgt>
<wgt id='1590'> +1.3370384e+00 </wgt>
<wgt id='1591'> +1.3381415e+00 </wgt>
<wgt id='1592'> +1.3320539e+00 </wgt>
<wgt id='1593'> +1.3423782e+00 </wgt>
<wgt id='1594'> +1.3403455e+00 </wgt>
<wgt id='1595'> +1.3405775e+00 </wgt>
<wgt id='1596'> +1.3461977e+00 </wgt>
<wgt id='1597'> +1.3387628e+00 </wgt>
<wgt id='1598'> +1.3487331e+00 </wgt>
<wgt id='1599'> +1.3593557e+00 </wgt>
<wgt id='1600'> +1.3448427e+00 </wgt>
<wgt id='1601'> +1.3391457e+00 </wgt>
<wgt id='1602'> +1.3444706e+00 </wgt>
<wgt id='1603'> +1.3410638e+00 </wgt>
<wgt id='1604'> +1.3436909e+00 </wgt>
<wgt id='1605'> +1.3398486e+00 </wgt>
<wgt id='1606'> +1.3416372e+00 </wgt>
<wgt id='1607'> +1.3442214e+00 </wgt>
<wgt id='1608'> +1.3498735e+00 </wgt>
<wgt id='1609'> +1.3421922e+00 </wgt>
<wgt id='1610'> +1.3392196e+00 </wgt>
<wgt id='1611'> +1.3494415e+00 </wgt>
<wgt id='1612'> +1.3371094e+00 </wgt>
<wgt id='1613'> +1.3354290e+00 </wgt>
<wgt id='1614'> +1.3369503e+00 </wgt>
<wgt id='1615'> +1.3381902e+00 </wgt>
<wgt id='1616'> +1.3376210e+00 </wgt>
<wgt id='1617'> +1.3361791e+00 </wgt>
<wgt id='1618'> +1.3382785e+00 </wgt>
<wgt id='1619'> +1.3351245e+00 </wgt>
<wgt id='1620'> +1.3354202e+00 </wgt>
<wgt id='1621'> +1.3357993e+00 </wgt>
<wgt id='1622'> +1.3382159e+00 </wgt>
<wgt id='1623'> +1.3308858e+00 </wgt>
<wgt id='1624'> +1.3321331e+00 </wgt>
<wgt id='1625'> +1.3318471e+00 </wgt>
<wgt id='1626'> +1.3347513e+00 </wgt>
<wgt id='1627'> +1.3380706e+00 </wgt>
<wgt id='1628'> +1.3391538e+00 </wgt>
<wgt id='1629'> +1.3363084e+00 </wgt>
<wgt id='1630'> +1.3354872e+00 </wgt>
<wgt id='1631'> +1.3344713e+00 </wgt>
<wgt id='1632'> +1.3339498e+00 </wgt>
<wgt id='1633'> +1.3367476e+00 </wgt>
<wgt id='1634'> +1.3379399e+00 </wgt>
<wgt id='1635'> +1.3333648e+00 </wgt>
<wgt id='1636'> +1.3423860e+00 </wgt>
<wgt id='1637'> +1.3379278e+00 </wgt>
<wgt id='1638'> +1.3389659e+00 </wgt>
<wgt id='1639'> +1.3432050e+00 </wgt>
<wgt id='1640'> +1.3398157e+00 </wgt>
<wgt id='1641'> +1.3218912e+00 </wgt>
<wgt id='1642'> +1.3291965e+00 </wgt>
<wgt id='1643'> +1.3351857e+00 </wgt>
<wgt id='1644'> +1.3310560e+00 </wgt>
<wgt id='1645'> +1.3360063e+00 </wgt>
<wgt id='1646'> +1.3399986e+00 </wgt>
<wgt id='1647'> +1.3377509e+00 </wgt>
<wgt id='1648'> +1.3375564e+00 </wgt>
<wgt id='1649'> +1.3422355e+00 </wgt>
<wgt id='1650'> +1.3364222e+00 </wgt>
<wgt id='1651'> +1.3359759e+00 </wgt>
<wgt id='1652'> +1.3369348e+00 </wgt>
<wgt id='1653'> +1.3366278e+00 </wgt>
<wgt id='1654'> +1.3354318e+00 </wgt>
<wgt id='1655'> +1.3369490e+00 </wgt>
<wgt id='1656'> +1.3416395e+00 </wgt>
<wgt id='1657'> +1.3332242e+00 </wgt>
<wgt id='1658'> +1.3377835e+00 </wgt>
<wgt id='1659'> +1.3406680e+00 </wgt>
<wgt id='1660'> +1.3322802e+00 </wgt>
<wgt id='1661'> +1.3408163e+00 </wgt>
<wgt id='1662'> +1.3429067e+00 </wgt>
<wgt id='1663'> +1.3446559e+00 </wgt>
<wgt id='1664'> +1.3354209e+00 </wgt>
<wgt id='1665'> +1.3376696e+00 </wgt>
<wgt id='1666'> +1.3397870e+00 </wgt>
<wgt id='1667'> +1.3358330e+00 </wgt>
<wgt id='1668'> +1.3359942e+00 </wgt>
<wgt id='1669'> +1.3354151e+00 </wgt>
<wgt id='1670'> +1.3372359e+00 </wgt>
<wgt id='1671'> +1.3352770e+00 </wgt>
<wgt id='1672'> +1.3349572e+00 </wgt>
<wgt id='1673'> +1.3367377e+00 </wgt>
<wgt id='1674'> +1.3335377e+00 </wgt>
<wgt id='1675'> +1.3379120e+00 </wgt>
<wgt id='1676'> +1.3389070e+00 </wgt>
<wgt id='1677'> +1.3363319e+00 </wgt>
<wgt id='1678'> +1.3391397e+00 </wgt>
<wgt id='1679'> +1.3367079e+00 </wgt>
<wgt id='1680'> +1.3369012e+00 </wgt>
<wgt id='1681'> +1.3374241e+00 </wgt>
<wgt id='1682'> +1.3359542e+00 </wgt>
<wgt id='1683'> +1.3346564e+00 </wgt>
<wgt id='1684'> +1.3375774e+00 </wgt>
<wgt id='1685'> +1.3382618e+00 </wgt>
<wgt id='1686'> +1.3379743e+00 </wgt>
<wgt id='1687'> +1.3377499e+00 </wgt>
<wgt id='1688'> +1.3377874e+00 </wgt>
<wgt id='1689'> +1.3368802e+00 </wgt>
<wgt id='1690'> +1.3372496e+00 </wgt>
<wgt id='1691'> +1.3414180e+00 </wgt>
<wgt id='1692'> +1.3357161e+00 </wgt>
<wgt id='1693'> +1.3362838e+00 </wgt>
<wgt id='1694'> +1.3356051e+00 </wgt>
<wgt id='1695'> +1.3373179e+00 </wgt>
<wgt id='1696'> +1.3355444e+00 </wgt>
<wgt id='1697'> +1.3378218e+00 </wgt>
<wgt id='1698'> +1.3374636e+00 </wgt>
<wgt id='1699'> +1.3365445e+00 </wgt>
<wgt id='1700'> +1.3381220e+00 </wgt>
<wgt id='1701'> +1.3365524e+00 </wgt>
<wgt id='1702'> +1.3360419e+00 </wgt>
<wgt id='1703'> +1.3389413e+00 </wgt>
<wgt id='1704'> +1.3391342e+00 </wgt>
<wgt id='1705'> +1.3365593e+00 </wgt>
<wgt id='1706'> +1.3375346e+00 </wgt>
<wgt id='1707'> +1.3367621e+00 </wgt>
<wgt id='1708'> +1.3369710e+00 </wgt>
<wgt id='1709'> +1.3382025e+00 </wgt>
<wgt id='1710'> +1.3361099e+00 </wgt>
<wgt id='1711'> +1.3367141e+00 </wgt>
<wgt id='1712'> +1.3386655e+00 </wgt>
<wgt id='1713'> +1.3180996e+00 </wgt>
<wgt id='1714'> +1.3538313e+00 </wgt>
<wgt id='1715'> +1.3284592e+00 </wgt>
<wgt id='1716'> +1.3287007e+00 </wgt>
<wgt id='1717'> +1.3710644e+00 </wgt>
<wgt id='1718'> +1.3140361e+00 </wgt>
<wgt id='1719'> +1.3032872e+00 </wgt>
<wgt id='1720'> +1.3703699e+00 </wgt>
<wgt id='1721'> +1.2993606e+00 </wgt>
<wgt id='1722'> +1.3497139e+00 </wgt>
<wgt id='1723'> +1.3556847e+00 </wgt>
<wgt id='1724'> +1.3541267e+00 </wgt>
<wgt id='1725'> +1.3289779e+00 </wgt>
<wgt id='1726'> +1.3256089e+00 </wgt>
<wgt id='1727'> +1.3428008e+00 </wgt>
<wgt id='1728'> +1.3422095e+00 </wgt>
<wgt id='1729'> +1.3315027e+00 </wgt>
<wgt id='1730'> +1.2911745e+00 </wgt>
<wgt id='1731'> +1.2278152e+00 </wgt>
<wgt id='1732'> +1.3003139e+00 </wgt>
<wgt id='1733'> +1.3392995e+00 </wgt>
<wgt id='1734'> +1.3928432e+00 </wgt>
<wgt id='1735'> +1.2698837e+00 </wgt>
<wgt id='1736'> +1.3761463e+00 </wgt>
<wgt id='1737'> +1.3095902e+00 </wgt>
<wgt id='1738'> +1.3439835e+00 </wgt>
<wgt id='1739'> +1.3566129e+00 </wgt>
<wgt id='1740'> +1.3382437e+00 </wgt>
<wgt id='1741'> +1.2990774e+00 </wgt>
<wgt id='1742'> +1.3564370e+00 </wgt>
<wgt id='1743'> +1.2722680e+00 </wgt>
<wgt id='1744'> +1.3492010e+00 </wgt>
<wgt id='1745'> +1.2877166e+00 </wgt>
<wgt id='1746'> +1.3019043e+00 </wgt>
<wgt id='1747'> +1.3592730e+00 </wgt>
<wgt id='1748'> +1.3118011e+00 </wgt>
<wgt id='1749'> +1.3599260e+00 </wgt>
<wgt id='1750'> +1.2989201e+00 </wgt>
<wgt id='1751'> +1.3329596e+00 </wgt>
<wgt id='1752'> +1.3162974e+00 </wgt>
<wgt id='1753'> +1.3734880e+00 </wgt>
<wgt id='1754'> +1.3673366e+00 </wgt>
<wgt id='1755'> +1.3391201e+00 </wgt>
<wgt id='1756'> +1.3579096e+00 </wgt>
<wgt id='1757'> +1.3628080e+00 </wgt>
<wgt id='1758'> +1.3433782e+00 </wgt>
<wgt id='1759'> +1.3210126e+00 </wgt>
<wgt id='1760'> +1.3423291e+00 </wgt>
<wgt id='1761'> +1.3226102e+00 </wgt>
<wgt id='1762'> +1.3428008e+00 </wgt>
<wgt id='1763'> +1.3206776e+00 </wgt>
<wgt id='1764'> +1.3724975e+00 </wgt>
<wgt id='1765'> +1.3303601e+00 </wgt>
<wgt id='1766'> +1.3482729e+00 </wgt>
<wgt id='1767'> +1.3437301e+00 </wgt>
<wgt id='1768'> +1.2381510e+00 </wgt>
<wgt id='1769'> +1.3360381e+00 </wgt>
<wgt id='1770'> +1.3638010e+00 </wgt>
<wgt id='1771'> +1.3447323e+00 </wgt>
<wgt id='1772'> +1.3611965e+00 </wgt>
<wgt id='1773'> +1.3368647e+00 </wgt>
<wgt id='1774'> +1.2637027e+00 </wgt>
<wgt id='1775'> +1.3080040e+00 </wgt>
<wgt id='1776'> +1.3756794e+00 </wgt>
<wgt id='1777'> +1.3473091e+00 </wgt>
<wgt id='1778'> +1.3034361e+00 </wgt>
<wgt id='1779'> +1.3185807e+00 </wgt>
<wgt id='1780'> +1.3106006e+00 </wgt>
<wgt id='1781'> +1.3415938e+00 </wgt>
<wgt id='1782'> +1.3616333e+00 </wgt>
<wgt id='1783'> +1.3252357e+00 </wgt>
<wgt id='1784'> +1.3069769e+00 </wgt>
<wgt id='1785'> +1.3303253e+00 </wgt>
<wgt id='1786'> +1.3504327e+00 </wgt>
<wgt id='1787'> +1.3105275e+00 </wgt>
<wgt id='1788'> +1.3487920e+00 </wgt>
<wgt id='1789'> +1.3218370e+00 </wgt>
<wgt id='1790'> +1.3062334e+00 </wgt>
<wgt id='1791'> +1.2432752e+00 </wgt>
<wgt id='1792'> +1.3014795e+00 </wgt>
<wgt id='1793'> +1.3370609e+00 </wgt>
<wgt id='1794'> +1.2943206e+00 </wgt>
<wgt id='1795'> +1.2770214e+00 </wgt>
<wgt id='1796'> +1.3223166e+00 </wgt>
<wgt id='1797'> +1.3307842e+00 </wgt>
<wgt id='1798'> +1.3075801e+00 </wgt>
<wgt id='1799'> +1.3459073e+00 </wgt>
<wgt id='1800'> +1.3592890e+00 </wgt>
<wgt id='1801'> +1.2923339e+00 </wgt>
<wgt id='1802'> +1.3453201e+00 </wgt>
<wgt id='1803'> +1.3313457e+00 </wgt>
<wgt id='1804'> +1.3544416e+00 </wgt>
<wgt id='1805'> +1.3605047e+00 </wgt>
<wgt id='1806'> +1.3077972e+00 </wgt>
<wgt id='1807'> +1.3236140e+00 </wgt>
<wgt id='1808'> +1.2923582e+00 </wgt>
<wgt id='1809'> +1.3371426e+00 </wgt>
<wgt id='1810'> +1.3049051e+00 </wgt>
<wgt id='1811'> +1.3448893e+00 </wgt>
<wgt id='1812'> +1.3150499e+00 </wgt>
<wgt id='1813'> +1.3566459e+00 </wgt>
<wgt id='1814'> +1.2939299e+00 </wgt>
<wgt id='1815'> +1.3514425e+00 </wgt>
<wgt id='1816'> +1.3690535e+00 </wgt>
<wgt id='1817'> +1.3965656e+00 </wgt>
<wgt id='1818'> +1.3923844e+00 </wgt>
<wgt id='1819'> +1.3828268e+00 </wgt>
<wgt id='1820'> +1.3909598e+00 </wgt>
<wgt id='1821'> +1.3876009e+00 </wgt>
<wgt id='1822'> +1.3683260e+00 </wgt>
<wgt id='1823'> +1.3749573e+00 </wgt>
<wgt id='1824'> +1.4224535e+00 </wgt>
<wgt id='1825'> +1.3691215e+00 </wgt>
<wgt id='1826'> +1.4076449e+00 </wgt>
<wgt id='1827'> +1.3441132e+00 </wgt>
<wgt id='1828'> +1.3620516e+00 </wgt>
<wgt id='1829'> +1.3014796e+00 </wgt>
<wgt id='1830'> +1.3471661e+00 </wgt>
<wgt id='1831'> +1.3885894e+00 </wgt>
<wgt id='1832'> +1.4035090e+00 </wgt>
<wgt id='1833'> +1.3356672e+00 </wgt>
<wgt id='1834'> +1.2842950e+00 </wgt>
<wgt id='1835'> +1.3791289e+00 </wgt>
<wgt id='1836'> +1.4591969e+00 </wgt>
<wgt id='1837'> +1.3941104e+00 </wgt>
<wgt id='1838'> +1.4052601e+00 </wgt>
<wgt id='1839'> +1.4135512e+00 </wgt>
<wgt id='1840'> +1.3414248e+00 </wgt>
<wgt id='1841'> +1.3369281e+00 </wgt>
<wgt id='1842'> +1.3422926e+00 </wgt>
<wgt id='1843'> +1.3329041e+00 </wgt>
<wgt id='1844'> +1.3298158e+00 </wgt>
<wgt id='1845'> +1.3896833e+00 </wgt>
<wgt id='1846'> +1.3963216e+00 </wgt>
<wgt id='1847'> +1.3754233e+00 </wgt>
<wgt id='1848'> +1.3737535e+00 </wgt>
<wgt id='1849'> +1.3880290e+00 </wgt>
<wgt id='1850'> +1.3663274e+00 </wgt>
<wgt id='1851'> +1.3833198e+00 </wgt>
<wgt id='1852'> +1.3593083e+00 </wgt>
<wgt id='1853'> +1.3464577e+00 </wgt>
<wgt id='1854'> +1.3719123e+00 </wgt>
<wgt id='1855'> +1.3807195e+00 </wgt>
<wgt id='1856'> +1.3682816e+00 </wgt>
<wgt id='1857'> +1.3934628e+00 </wgt>
<wgt id='1858'> +1.3748360e+00 </wgt>
<wgt id='1859'> +1.3622804e+00 </wgt>
<wgt id='1860'> +1.3795172e+00 </wgt>
<wgt id='1861'> +1.3787637e+00 </wgt>
<wgt id='1862'> +1.3495066e+00 </wgt>
<wgt id='1863'> +1.3947398e+00 </wgt>
<wgt id='1864'> +1.3653052e+00 </wgt>
<wgt id='1865'> +1.3808744e+00 </wgt>
<wgt id='1866'> +1.3627304e+00 </wgt>
<wgt id='1867'> +1.3728998e+00 </wgt>
<wgt id='1868'> +1.3601924e+00 </wgt>
<wgt id='1869'> +1.3722260e+00 </wgt>
<wgt id='1870'> +1.3603348e+00 </wgt>
<wgt id='1871'> +1.3340465e+00 </wgt>
<wgt id='1872'> +1.3121886e+00 </wgt>
<wgt id='1873'> +1.3218056e+00 </wgt>
<wgt id='1874'> +1.3417890e+00 </wgt>
<wgt id='1875'> +1.3885448e+00 </wgt>
<wgt id='1876'> +1.3977328e+00 </wgt>
<wgt id='1877'> +1.2932873e+00 </wgt>
<wgt id='1878'> +1.3745521e+00 </wgt>
<wgt id='1879'> +1.3055667e+00 </wgt>
<wgt id='1880'> +1.2695257e+00 </wgt>
<wgt id='1881'> +1.3580209e+00 </wgt>
<wgt id='1882'> +1.3249012e+00 </wgt>
<wgt id='1883'> +1.5513372e+00 </wgt>
<wgt id='1884'> +1.3251401e+00 </wgt>
<wgt id='1885'> +1.3706875e+00 </wgt>
<wgt id='1886'> +1.3423295e+00 </wgt>
<wgt id='1887'> +1.3612143e+00 </wgt>
<wgt id='1888'> +1.3885067e+00 </wgt>
<wgt id='1889'> +1.4075809e+00 </wgt>
<wgt id='1890'> +1.3873338e+00 </wgt>
<wgt id='1891'> +1.3651050e+00 </wgt>
<wgt id='1892'> +1.4213765e+00 </wgt>
<wgt id='1893'> +1.3442012e+00 </wgt>
<wgt id='1894'> +1.4029459e+00 </wgt>
<wgt id='1895'> +1.3689387e+00 </wgt>
<wgt id='1896'> +1.3681370e+00 </wgt>
<wgt id='1897'> +1.3834206e+00 </wgt>
<wgt id='1898'> +1.3873001e+00 </wgt>
<wgt id='1899'> +1.4202218e+00 </wgt>
<wgt id='1900'> +1.3683452e+00 </wgt>
<wgt id='1901'> +1.3516367e+00 </wgt>
<wgt id='1902'> +1.3693506e+00 </wgt>
<wgt id='1903'> +1.3732449e+00 </wgt>
<wgt id='1904'> +1.3499505e+00 </wgt>
<wgt id='1905'> +1.3464264e+00 </wgt>
<wgt id='1906'> +1.3637306e+00 </wgt>
<wgt id='1907'> +1.4084421e+00 </wgt>
<wgt id='1908'> +1.4020810e+00 </wgt>
<wgt id='1909'> +1.3582240e+00 </wgt>
<wgt id='1910'> +1.4196701e+00 </wgt>
<wgt id='1911'> +1.3178085e+00 </wgt>
<wgt id='1912'> +1.3869134e+00 </wgt>
<wgt id='1913'> +1.3288900e+00 </wgt>
<wgt id='1914'> +1.3461224e+00 </wgt>
<wgt id='1915'> +1.3531426e+00 </wgt>
<wgt id='1916'> +1.3358098e+00 </wgt>
<wgt id='1917'> +1.3343099e+00 </wgt>
<wgt id='1918'> +1.3818699e+00 </wgt>
<wgt id='1919'> +1.3690535e+00 </wgt>
<wgt id='1920'> +1.3965656e+00 </wgt>
<wgt id='1921'> +1.3923844e+00 </wgt>
<wgt id='1922'> +1.3828268e+00 </wgt>
<wgt id='1923'> +1.3909598e+00 </wgt>
<wgt id='1924'> +1.3876009e+00 </wgt>
<wgt id='1925'> +1.3683260e+00 </wgt>
<wgt id='1926'> +1.3749573e+00 </wgt>
<wgt id='1927'> +1.4224535e+00 </wgt>
<wgt id='1928'> +1.3691215e+00 </wgt>
<wgt id='1929'> +1.4076449e+00 </wgt>
<wgt id='1930'> +1.3441132e+00 </wgt>
<wgt id='1931'> +1.3620516e+00 </wgt>
<wgt id='1932'> +1.3014796e+00 </wgt>
<wgt id='1933'> +1.3471661e+00 </wgt>
<wgt id='1934'> +1.3885894e+00 </wgt>
<wgt id='1935'> +1.4035090e+00 </wgt>
<wgt id='1936'> +1.3356672e+00 </wgt>
<wgt id='1937'> +1.2842950e+00 </wgt>
<wgt id='1938'> +1.3791289e+00 </wgt>
<wgt id='1939'> +1.4591969e+00 </wgt>
<wgt id='1940'> +1.3941104e+00 </wgt>
<wgt id='1941'> +1.4052601e+00 </wgt>
<wgt id='1942'> +1.4135512e+00 </wgt>
<wgt id='1943'> +1.3414248e+00 </wgt>
<wgt id='1944'> +1.3369281e+00 </wgt>
<wgt id='1945'> +1.3422926e+00 </wgt>
<wgt id='1946'> +1.3329041e+00 </wgt>
<wgt id='1947'> +1.3298158e+00 </wgt>
<wgt id='1948'> +1.3896833e+00 </wgt>
<wgt id='1949'> +1.3963216e+00 </wgt>
<wgt id='1950'> +1.3754233e+00 </wgt>
<wgt id='1951'> +1.3737535e+00 </wgt>
<wgt id='1952'> +1.3880290e+00 </wgt>
<wgt id='1953'> +1.3663274e+00 </wgt>
<wgt id='1954'> +1.3833198e+00 </wgt>
<wgt id='1955'> +1.3593083e+00 </wgt>
<wgt id='1956'> +1.3464577e+00 </wgt>
<wgt id='1957'> +1.3719123e+00 </wgt>
<wgt id='1958'> +1.3807195e+00 </wgt>
<wgt id='1959'> +1.3682816e+00 </wgt>
<wgt id='1960'> +1.3934628e+00 </wgt>
<wgt id='1961'> +1.3748360e+00 </wgt>
<wgt id='1962'> +1.3622804e+00 </wgt>
<wgt id='1963'> +1.3795172e+00 </wgt>
<wgt id='1964'> +1.3787637e+00 </wgt>
<wgt id='1965'> +1.3495066e+00 </wgt>
<wgt id='1966'> +1.3947398e+00 </wgt>
<wgt id='1967'> +1.3653052e+00 </wgt>
<wgt id='1968'> +1.3808744e+00 </wgt>
<wgt id='1969'> +1.3627304e+00 </wgt>
<wgt id='1970'> +1.3728998e+00 </wgt>
<wgt id='1971'> +1.3601924e+00 </wgt>
<wgt id='1972'> +1.3722260e+00 </wgt>
<wgt id='1973'> +1.3603348e+00 </wgt>
<wgt id='1974'> +1.3340465e+00 </wgt>
<wgt id='1975'> +1.3121886e+00 </wgt>
<wgt id='1976'> +1.3218056e+00 </wgt>
<wgt id='1977'> +1.3417890e+00 </wgt>
<wgt id='1978'> +1.3885448e+00 </wgt>
<wgt id='1979'> +1.3977328e+00 </wgt>
<wgt id='1980'> +1.2932873e+00 </wgt>
<wgt id='1981'> +1.3745521e+00 </wgt>
<wgt id='1982'> +1.3055667e+00 </wgt>
<wgt id='1983'> +1.2695257e+00 </wgt>
<wgt id='1984'> +1.3580209e+00 </wgt>
<wgt id='1985'> +1.3249012e+00 </wgt>
<wgt id='1986'> +1.5513372e+00 </wgt>
<wgt id='1987'> +1.3251401e+00 </wgt>
<wgt id='1988'> +1.3706875e+00 </wgt>
<wgt id='1989'> +1.3423295e+00 </wgt>
<wgt id='1990'> +1.3612143e+00 </wgt>
<wgt id='1991'> +1.3885067e+00 </wgt>
<wgt id='1992'> +1.4075809e+00 </wgt>
<wgt id='1993'> +1.3873338e+00 </wgt>
<wgt id='1994'> +1.3651050e+00 </wgt>
<wgt id='1995'> +1.4213765e+00 </wgt>
<wgt id='1996'> +1.3442012e+00 </wgt>
<wgt id='1997'> +1.4029459e+00 </wgt>
<wgt id='1998'> +1.3689387e+00 </wgt>
<wgt id='1999'> +1.3681370e+00 </wgt>
<wgt id='2000'> +1.3834206e+00 </wgt>
<wgt id='2001'> +1.3873001e+00 </wgt>
<wgt id='2002'> +1.4202218e+00 </wgt>
<wgt id='2003'> +1.3683452e+00 </wgt>
<wgt id='2004'> +1.3516367e+00 </wgt>
<wgt id='2005'> +1.3693506e+00 </wgt>
<wgt id='2006'> +1.3732449e+00 </wgt>
<wgt id='2007'> +1.3499505e+00 </wgt>
<wgt id='2008'> +1.3464264e+00 </wgt>
<wgt id='2009'> +1.3637306e+00 </wgt>
<wgt id='2010'> +1.4084421e+00 </wgt>
<wgt id='2011'> +1.4020810e+00 </wgt>
<wgt id='2012'> +1.3582240e+00 </wgt>
<wgt id='2013'> +1.4196701e+00 </wgt>
<wgt id='2014'> +1.3178085e+00 </wgt>
<wgt id='2015'> +1.3869134e+00 </wgt>
<wgt id='2016'> +1.3288900e+00 </wgt>
<wgt id='2017'> +1.3461224e+00 </wgt>
<wgt id='2018'> +1.3531426e+00 </wgt>
<wgt id='2019'> +1.3358098e+00 </wgt>
<wgt id='2020'> +1.3633598e+00 </wgt>
<wgt id='2021'> +1.3699396e+00 </wgt>
<wgt id='2022'> +1.3605831e+00 </wgt>
</rwgt>
</event>
<event>
13      1 +1.3581722e+00 6.84398800e+01 7.81860800e-03 1.22829700e-01
       21 -1    0    0  502  503 +0.0000000000e+00 +0.0000000000e+00 +1.9994464415e+02 1.9994464415e+02 0.0000000000e+00 0.0000e+00 1.0000e+00
        2 -1    0    0  501    0 +0.0000000000e+00 +0.0000000000e+00 -2.9103985169e+03 2.9103985169e+03 2.5500000000e-03 0.0000e+00 -1.0000e+00
  8000001  2    1    2  502    0 +3.7325561596e+01 -2.7590354571e+01 -1.0620463224e+03 1.2206948639e+03 5.9999927868e+02 0.0000e+00 0.0000e+00
        1  1    1    2  501    0 -3.7091635746e+01 +2.1363618017e+01 -1.7686430333e+03 1.7691609234e+03 5.0400000000e-03 0.0000e+00 -1.0000e+00
       -5  1    1    2    0  503 -2.3392584985e-01 +6.2267365544e+00 +1.2023548300e+02 1.2048737379e+02 4.6700000000e+00 0.0000e+00 1.0000e+00
        6  2    3    3  502    0 +2.1167471490e+02 +1.7062074637e+02 -5.3859902034e+02 6.2728425076e+02 1.7169450344e+02 0.0000e+00 0.0000e+00
        5  1    6    6  502    0 +1.0860452203e+02 +2.4487187934e+01 -1.0996882434e+02 1.5655515260e+02 4.6700000000e+00 0.0000e+00 -1.0000e+00
       24  2    6    6    0    0 +1.0307019288e+02 +1.4613355844e+02 -4.2863019601e+02 4.7072909816e+02 7.6704350374e+01 0.0000e+00 0.0000e+00
       16  1    8    8    0    0 +1.0724489738e+02 +1.0986030020e+02 -3.8037974005e+02 4.1019446634e+02 0.0000000000e+00 0.0000e+00 -1.0000e+00
      -15  1    8    8    0    0 -4.1747045052e+00 +3.6273258242e+01 -4.8250455953e+01 6.0534631821e+01 1.7770000000e+00 0.0000e+00 1.0000e+00
       23  2    3    3    0    0 -1.7434915331e+02 -1.9821110094e+02 -5.2344730210e+02 5.9341061310e+02 9.1944602137e+01 0.0000e+00 0.0000e+00
        3  1   11   11  504    0 -1.3876106533e+02 -1.7430444783e+02 -4.9245911177e+02 5.4051148068e+02 1.0100000000e-01 0.0000e+00 1.0000e+00
       -3  1   11   11    0  504 -3.5588087979e+01 -2.3906653120e+01 -3.0988190336e+01 5.2899132419e+01 1.0100000000e-01 0.0000e+00 -1.0000e+00
<mgrwt>
<rscale>  1 0.54131753e+02</rscale>
<asrwt>0</asrwt>
<pdfrwt beam="1">  1       21 0.30760714e-01 0.68439877e+02</pdfrwt>
<pdfrwt beam="2">  1        2 0.44775362e+00 0.42814903e+02</pdfrwt>
<totfact> 0.45127344e+02</totfact>
</mgrwt>
<rwgt>
<wgt id='1001'> +1.3581722e+00 </wgt>
<wgt id='1002'> +6.2810686e-01 </wgt>
<wgt id='1003'> +6.2767108e-01 </wgt>
<wgt id='1004'> +7.5888932e-01 </wgt>
<wgt id='1005'> +4.9953769e-01 </wgt>
<wgt id='1006'> +1.2127948e+00 </wgt>
<wgt id='1007'> +5.7992017e-01 </wgt>
<wgt id='1008'> +5.7953254e-01 </wgt>
<wgt id='1009'> +6.9560691e-01 </wgt>
<wgt id='1010'> +4.6484170e-01 </wgt>
<wgt id='1011'> +1.5448482e+00 </wgt>
<wgt id='1012'> +6.8526924e-01 </wgt>
<wgt id='1013'> +6.8477307e-01 </wgt>
<wgt id='1014'> +8.3521520e-01 </wgt>
<wgt id='1015'> +5.3996682e-01 </wgt>
<wgt id='1016'> +1.2003836e+00 </wgt>
<wgt id='1017'> +5.6999830e-01 </wgt>
<wgt id='1018'> +5.6961354e-01 </wgt>
<wgt id='1019'> +6.8477307e-01 </wgt>
<wgt id='1020'> +4.5618405e-01 </wgt>
<wgt id='1021'> +1.0718957e+00 </wgt>
<wgt id='1022'> +5.2626955e-01 </wgt>
<wgt id='1023'> +5.2592766e-01 </wgt>
<wgt id='1024'> +6.2767108e-01 </wgt>
<wgt id='1025'> +4.2449924e-01 </wgt>
<wgt id='1026'> +1.3653721e+00 </wgt>
<wgt id='1027'> +6.2187238e-01 </wgt>
<wgt id='1028'> +6.2143378e-01 </wgt>
<wgt id='1029'> +7.5364465e-01 </wgt>
<wgt id='1030'> +4.9310444e-01 </wgt>
<wgt id='1031'> +1.5497503e+00 </wgt>
<wgt id='1032'> +6.9610659e-01 </wgt>
<wgt id='1033'> +6.9560691e-01 </wgt>
<wgt id='1034'> +8.4572385e-01 </wgt>
<wgt id='1035'> +5.4967699e-01 </wgt>
<wgt id='1036'> +1.3838665e+00 </wgt>
<wgt id='1037'> +6.4270314e-01 </wgt>
<wgt id='1038'> +6.4225811e-01 </wgt>
<wgt id='1039'> +7.7520046e-01 </wgt>
<wgt id='1040'> +5.1149852e-01 </wgt>
<wgt id='1041'> +1.7627580e+00 </wgt>
<wgt id='1042'> +7.5945745e-01 </wgt>
<wgt id='1043'> +7.5888932e-01 </wgt>
<wgt id='1044'> +9.3078318e-01 </wgt>
<wgt id='1045'> +5.9416405e-01 </wgt>
<wgt id='1046'> +1.3581722e+00 </wgt>
<wgt id='1047'> +1.3581722e+00 </wgt>
<wgt id='1048'> +1.3581722e+00 </wgt>
<wgt id='1049'> +1.3631885e+00 </wgt>
<wgt id='1050'> +1.3558566e+00 </wgt>
<wgt id='1051'> +1.3639891e+00 </wgt>
<wgt id='1052'> +1.3601026e+00 </wgt>
<wgt id='1053'> +1.3638053e+00 </wgt>
<wgt id='1054'> +1.3574705e+00 </wgt>
<wgt id='1055'> +1.3599623e+00 </wgt>
<wgt id='1056'> +1.3631212e+00 </wgt>
<wgt id='1057'> +1.3594374e+00 </wgt>
<wgt id='1058'> +1.3597929e+00 </wgt>
<wgt id='1059'> +1.3470645e+00 </wgt>
<wgt id='1060'> +1.3573011e+00 </wgt>
<wgt id='1061'> +1.3618572e+00 </wgt>
<wgt id='1062'> +1.3572808e+00 </wgt>
<wgt id='1063'> +1.3600621e+00 </wgt>
<wgt id='1064'> +1.3569272e+00 </wgt>
<wgt id='1065'> +1.3555291e+00 </wgt>
<wgt id='1066'> +1.3542340e+00 </wgt>
<wgt id='1067'> +1.3623165e+00 </wgt>
<wgt id='1068'> +1.3493334e+00 </wgt>
<wgt id='1069'> +1.3618062e+00 </wgt>
<wgt id='1070'> +1.3580271e+00 </wgt>
<wgt id='1071'> +1.3559981e+00 </wgt>
<wgt id='1072'> +1.3643372e+00 </wgt>
<wgt id='1073'> +1.3625848e+00 </wgt>
<wgt id='1074'> +1.3595928e+00 </wgt>
<wgt id='1075'> +1.3518573e+00 </wgt>
<wgt id='1076'> +1.3624050e+00 </wgt>
<wgt id='1077'> +1.3676951e+00 </wgt>
<wgt id='1078'> +1.3606681e+00 </wgt>
<wgt id='1079'> +1.3642770e+00 </wgt>
<wgt id='1080'> +1.3603234e+00 </wgt>
<wgt id='1081'> +1.3549326e+00 </wgt>
<wgt id='1082'> +1.3630345e+00 </wgt>
<wgt id='1083'> +1.3573648e+00 </wgt>
<wgt id='1084'> +1.3515366e+00 </wgt>
<wgt id='1085'> +1.3627260e+00 </wgt>
<wgt id='1086'> +1.3506815e+00 </wgt>
<wgt id='1087'> +1.3513069e+00 </wgt>
<wgt id='1088'> +1.3602027e+00 </wgt>
<wgt id='1089'> +1.3550981e+00 </wgt>
<wgt id='1090'> +1.3531563e+00 </wgt>
<wgt id='1091'> +1.3564972e+00 </wgt>
<wgt id='1092'> +1.3599441e+00 </wgt>
<wgt id='1093'> +1.3593163e+00 </wgt>
<wgt id='1094'> +1.3605720e+00 </wgt>
<wgt id='1095'> +1.3550808e+00 </wgt>
<wgt id='1096'> +1.3604896e+00 </wgt>
<wgt id='1097'> +1.3611881e+00 </wgt>
<wgt id='1098'> +1.3539905e+00 </wgt>
<wgt id='1099'> +1.3608321e+00 </wgt>
<wgt id='1100'> +1.3592526e+00 </wgt>
<wgt id='1101'> +1.3544959e+00 </wgt>
<wgt id='1102'> +1.3645248e+00 </wgt>
<wgt id='1103'> +1.3616358e+00 </wgt>
<wgt id='1104'> +1.3578110e+00 </wgt>
<wgt id='1105'> +1.3529119e+00 </wgt>
<wgt id='1106'> +1.3618323e+00 </wgt>
<wgt id='1107'> +1.3547723e+00 </wgt>
<wgt id='1108'> +1.3561062e+00 </wgt>
<wgt id='1109'> +1.3628967e+00 </wgt>
<wgt id='1110'> +1.3623838e+00 </wgt>
<wgt id='1111'> +1.3616402e+00 </wgt>
<wgt id='1112'> +1.3661816e+00 </wgt>
<wgt id='1113'> +1.3565555e+00 </wgt>
<wgt id='1114'> +1.3604422e+00 </wgt>
<wgt id='1115'> +1.3622891e+00 </wgt>
<wgt id='1116'> +1.3627413e+00 </wgt>
<wgt id='1117'> +1.3568769e+00 </wgt>
<wgt id='1118'> +1.3572258e+00 </wgt>
<wgt id='1119'> +1.3600416e+00 </wgt>
<wgt id='1120'> +1.3559809e+00 </wgt>
<wgt id='1121'> +1.3565511e+00 </wgt>
<wgt id='1122'> +1.3593702e+00 </wgt>
<wgt id='1123'> +1.3577137e+00 </wgt>
<wgt id='1124'> +1.3585277e+00 </wgt>
<wgt id='1125'> +1.3564468e+00 </wgt>
<wgt id='1126'> +1.3579866e+00 </wgt>
<wgt id='1127'> +1.3574564e+00 </wgt>
<wgt id='1128'> +1.3581591e+00 </wgt>
<wgt id='1129'> +1.3588566e+00 </wgt>
<wgt id='1130'> +1.3575518e+00 </wgt>
<wgt id='1131'> +1.3596466e+00 </wgt>
<wgt id='1132'> +1.3591276e+00 </wgt>
<wgt id='1133'> +1.3580851e+00 </wgt>
<wgt id='1134'> +1.3575071e+00 </wgt>
<wgt id='1135'> +1.3571546e+00 </wgt>
<wgt id='1136'> +1.3572207e+00 </wgt>
<wgt id='1137'> +1.3559194e+00 </wgt>
<wgt id='1138'> +1.3596798e+00 </wgt>
<wgt id='1139'> +1.3584642e+00 </wgt>
<wgt id='1140'> +1.3586138e+00 </wgt>
<wgt id='1141'> +1.3566132e+00 </wgt>
<wgt id='1142'> +1.3598269e+00 </wgt>
<wgt id='1143'> +1.3588843e+00 </wgt>
<wgt id='1144'> +1.3572169e+00 </wgt>
<wgt id='1145'> +1.3573824e+00 </wgt>
<wgt id='1146'> +1.3585134e+00 </wgt>
<wgt id='1147'> +1.3579411e+00 </wgt>
<wgt id='1148'> +1.3581722e+00 </wgt>
<wgt id='1149'> +1.2926306e+00 </wgt>
<wgt id='1150'> +1.2862003e+00 </wgt>
<wgt id='1151'> +1.2952218e+00 </wgt>
<wgt id='1152'> +1.3400044e+00 </wgt>
<wgt id='1153'> +1.2794934e+00 </wgt>
<wgt id='1154'> +1.3216674e+00 </wgt>
<wgt id='1155'> +1.2860542e+00 </wgt>
<wgt id='1156'> +1.2438782e+00 </wgt>
<wgt id='1157'> +1.3113830e+00 </wgt>
<wgt id='1158'> +1.2663251e+00 </wgt>
<wgt id='1159'> +1.2909219e+00 </wgt>
<wgt id='1160'> +1.3172857e+00 </wgt>
<wgt id='1161'> +1.2812902e+00 </wgt>
<wgt id='1162'> +1.2732510e+00 </wgt>
<wgt id='1163'> +1.2932435e+00 </wgt>
<wgt id='1164'> +1.2991768e+00 </wgt>
<wgt id='1165'> +1.3212242e+00 </wgt>
<wgt id='1166'> +1.3206316e+00 </wgt>
<wgt id='1167'> +1.2971860e+00 </wgt>
<wgt id='1168'> +1.2804006e+00 </wgt>
<wgt id='1169'> +1.2811019e+00 </wgt>
<wgt id='1170'> +1.3393191e+00 </wgt>
<wgt id='1171'> +1.3371150e+00 </wgt>
<wgt id='1172'> +1.2970273e+00 </wgt>
<wgt id='1173'> +1.2628547e+00 </wgt>
<wgt id='1174'> +1.3276797e+00 </wgt>
<wgt id='1175'> +1.3379894e+00 </wgt>
<wgt id='1176'> +1.2523034e+00 </wgt>
<wgt id='1177'> +1.3114530e+00 </wgt>
<wgt id='1178'> +1.2751305e+00 </wgt>
<wgt id='1179'> +1.2976948e+00 </wgt>
<wgt id='1180'> +1.3277287e+00 </wgt>
<wgt id='1181'> +1.2786356e+00 </wgt>
<wgt id='1182'> +1.3126841e+00 </wgt>
<wgt id='1183'> +1.3082746e+00 </wgt>
<wgt id='1184'> +1.2704426e+00 </wgt>
<wgt id='1185'> +1.3205251e+00 </wgt>
<wgt id='1186'> +1.2687630e+00 </wgt>
<wgt id='1187'> +1.2494852e+00 </wgt>
<wgt id='1188'> +1.2026861e+00 </wgt>
<wgt id='1189'> +1.2463231e+00 </wgt>
<wgt id='1190'> +1.3088412e+00 </wgt>
<wgt id='1191'> +1.2780345e+00 </wgt>
<wgt id='1192'> +1.2811343e+00 </wgt>
<wgt id='1193'> +1.2549477e+00 </wgt>
<wgt id='1194'> +1.2773572e+00 </wgt>
<wgt id='1195'> +1.2957715e+00 </wgt>
<wgt id='1196'> +1.3277381e+00 </wgt>
<wgt id='1197'> +1.2632448e+00 </wgt>
<wgt id='1198'> +1.2791587e+00 </wgt>
<wgt id='1199'> +1.2746499e+00 </wgt>
<wgt id='1200'> +1.3214562e+00 </wgt>
<wgt id='1201'> +1.2911926e+00 </wgt>
<wgt id='1202'> +1.2845671e+00 </wgt>
<wgt id='1203'> +1.3474208e+00 </wgt>
<wgt id='1204'> +1.3086197e+00 </wgt>
<wgt id='1205'> +1.2341347e+00 </wgt>
<wgt id='1206'> +1.3226176e+00 </wgt>
<wgt id='1207'> +1.3263331e+00 </wgt>
<wgt id='1208'> +1.3080758e+00 </wgt>
<wgt id='1209'> +1.3492204e+00 </wgt>
<wgt id='1210'> +1.2340397e+00 </wgt>
<wgt id='1211'> +1.3139582e+00 </wgt>
<wgt id='1212'> +1.2664066e+00 </wgt>
<wgt id='1213'> +1.3032817e+00 </wgt>
<wgt id='1214'> +1.3403478e+00 </wgt>
<wgt id='1215'> +1.2519269e+00 </wgt>
<wgt id='1216'> +1.2934390e+00 </wgt>
<wgt id='1217'> +1.3068458e+00 </wgt>
<wgt id='1218'> +1.2687455e+00 </wgt>
<wgt id='1219'> +1.2743274e+00 </wgt>
<wgt id='1220'> +1.3156672e+00 </wgt>
<wgt id='1221'> +1.2495695e+00 </wgt>
<wgt id='1222'> +1.3175469e+00 </wgt>
<wgt id='1223'> +1.3149503e+00 </wgt>
<wgt id='1224'> +1.2819060e+00 </wgt>
<wgt id='1225'> +1.3883462e+00 </wgt>
<wgt id='1226'> +1.2544689e+00 </wgt>
<wgt id='1227'> +1.3472890e+00 </wgt>
<wgt id='1228'> +1.3411591e+00 </wgt>
<wgt id='1229'> +1.2490587e+00 </wgt>
<wgt id='1230'> +1.2678612e+00 </wgt>
<wgt id='1231'> +1.3212242e+00 </wgt>
<wgt id='1232'> +1.2401170e+00 </wgt>
<wgt id='1233'> +1.3038997e+00 </wgt>
<wgt id='1234'> +1.3438982e+00 </wgt>
<wgt id='1235'> +1.1681104e+00 </wgt>
<wgt id='1236'> +1.3169082e+00 </wgt>
<wgt id='1237'> +1.2773086e+00 </wgt>
<wgt id='1238'> +1.2500144e+00 </wgt>
<wgt id='1239'> +1.2971021e+00 </wgt>
<wgt id='1240'> +1.3034653e+00 </wgt>
<wgt id='1241'> +1.2878568e+00 </wgt>
<wgt id='1242'> +1.2778702e+00 </wgt>
<wgt id='1243'> +1.2845887e+00 </wgt>
<wgt id='1244'> +1.2861278e+00 </wgt>
<wgt id='1245'> +1.3060205e+00 </wgt>
<wgt id='1246'> +1.2475590e+00 </wgt>
<wgt id='1247'> +1.3121903e+00 </wgt>
<wgt id='1248'> +1.3240072e+00 </wgt>
<wgt id='1249'> +1.2856465e+00 </wgt>
<wgt id='1250'> +1.3558317e+00 </wgt>
<wgt id='1251'> +1.3338389e+00 </wgt>
<wgt id='1252'> +1.3403157e+00 </wgt>
<wgt id='1253'> +1.3612300e+00 </wgt>
<wgt id='1254'> +1.4088378e+00 </wgt>
<wgt id='1255'> +1.5874899e+00 </wgt>
<wgt id='1256'> +1.6018099e+00 </wgt>
<wgt id='1257'> +1.5792661e+00 </wgt>
<wgt id='1258'> +1.5857683e+00 </wgt>
<wgt id='1259'> +1.5883858e+00 </wgt>
<wgt id='1260'> +1.5920439e+00 </wgt>
<wgt id='1261'> +1.5813846e+00 </wgt>
<wgt id='1262'> +1.5908323e+00 </wgt>
<wgt id='1263'> +1.5853930e+00 </wgt>
<wgt id='1264'> +1.5858187e+00 </wgt>
<wgt id='1265'> +1.5886744e+00 </wgt>
<wgt id='1266'> +1.5872351e+00 </wgt>
<wgt id='1267'> +1.5877508e+00 </wgt>
<wgt id='1268'> +1.5931717e+00 </wgt>
<wgt id='1269'> +1.5815320e+00 </wgt>
<wgt id='1270'> +1.5816565e+00 </wgt>
<wgt id='1271'> +1.5924727e+00 </wgt>
<wgt id='1272'> +1.5941544e+00 </wgt>
<wgt id='1273'> +1.5824504e+00 </wgt>
<wgt id='1274'> +1.5838262e+00 </wgt>
<wgt id='1275'> +1.5922284e+00 </wgt>
<wgt id='1276'> +1.5839292e+00 </wgt>
<wgt id='1277'> +1.5913735e+00 </wgt>
<wgt id='1278'> +1.5807966e+00 </wgt>
<wgt id='1279'> +1.5931545e+00 </wgt>
<wgt id='1280'> +1.5906389e+00 </wgt>
<wgt id='1281'> +1.5793510e+00 </wgt>
<wgt id='1282'> +1.6008662e+00 </wgt>
<wgt id='1283'> +1.5731532e+00 </wgt>
<wgt id='1284'> +1.5835739e+00 </wgt>
<wgt id='1285'> +1.5921282e+00 </wgt>
<wgt id='1286'> +1.5995922e+00 </wgt>
<wgt id='1287'> +1.5865517e+00 </wgt>
<wgt id='1288'> +1.5872378e+00 </wgt>
<wgt id='1289'> +1.5876381e+00 </wgt>
<wgt id='1290'> +1.5893769e+00 </wgt>
<wgt id='1291'> +1.5868531e+00 </wgt>
<wgt id='1292'> +1.5938647e+00 </wgt>
<wgt id='1293'> +1.5776615e+00 </wgt>
<wgt id='1294'> +1.5749416e+00 </wgt>
<wgt id='1295'> +1.5928570e+00 </wgt>
<wgt id='1296'> +1.3808188e+00 </wgt>
<wgt id='1297'> +1.3844273e+00 </wgt>
<wgt id='1298'> +1.3779173e+00 </wgt>
<wgt id='1299'> +1.3740577e+00 </wgt>
<wgt id='1300'> +1.3883738e+00 </wgt>
<wgt id='1301'> +1.3769402e+00 </wgt>
<wgt id='1302'> +1.3866339e+00 </wgt>
<wgt id='1303'> +1.3801964e+00 </wgt>
<wgt id='1304'> +1.3812732e+00 </wgt>
<wgt id='1305'> +1.3826254e+00 </wgt>
<wgt id='1306'> +1.3783644e+00 </wgt>
<wgt id='1307'> +1.3896863e+00 </wgt>
<wgt id='1308'> +1.3753943e+00 </wgt>
<wgt id='1309'> +1.3826704e+00 </wgt>
<wgt id='1310'> +1.3783802e+00 </wgt>
<wgt id='1311'> +1.3826820e+00 </wgt>
<wgt id='1312'> +1.3800410e+00 </wgt>
<wgt id='1313'> +1.3838874e+00 </wgt>
<wgt id='1314'> +1.3763653e+00 </wgt>
<wgt id='1315'> +1.3757031e+00 </wgt>
<wgt id='1316'> +1.3857694e+00 </wgt>
<wgt id='1317'> +1.3708582e+00 </wgt>
<wgt id='1318'> +1.3989562e+00 </wgt>
<wgt id='1319'> +1.3865056e+00 </wgt>
<wgt id='1320'> +1.3780634e+00 </wgt>
<wgt id='1321'> +1.3784520e+00 </wgt>
<wgt id='1322'> +1.3823069e+00 </wgt>
<wgt id='1323'> +1.3862892e+00 </wgt>
<wgt id='1324'> +1.3753585e+00 </wgt>
<wgt id='1325'> +1.3804322e+00 </wgt>
<wgt id='1326'> +1.3822183e+00 </wgt>
<wgt id='1327'> +1.3832613e+00 </wgt>
<wgt id='1328'> +1.3798546e+00 </wgt>
<wgt id='1329'> +1.3817533e+00 </wgt>
<wgt id='1330'> +1.3802239e+00 </wgt>
<wgt id='1331'> +1.3847186e+00 </wgt>
<wgt id='1332'> +1.3815307e+00 </wgt>
<wgt id='1333'> +1.3882661e+00 </wgt>
<wgt id='1334'> +1.3687291e+00 </wgt>
<wgt id='1335'> +1.3844790e+00 </wgt>
<wgt id='1336'> +1.3801505e+00 </wgt>
<wgt id='1337'> +1.3808188e+00 </wgt>
<wgt id='1338'> +1.3807625e+00 </wgt>
<wgt id='1339'> +1.3807902e+00 </wgt>
<wgt id='1340'> +1.3808157e+00 </wgt>
<wgt id='1341'> +1.3808773e+00 </wgt>
<wgt id='1342'> +1.3810403e+00 </wgt>
<wgt id='1343'> +1.3810173e+00 </wgt>
<wgt id='1344'> +1.3498358e+00 </wgt>
<wgt id='1345'> +1.3551244e+00 </wgt>
<wgt id='1346'> +1.3446623e+00 </wgt>
<wgt id='1347'> +1.3617131e+00 </wgt>
<wgt id='1348'> +1.3411750e+00 </wgt>
<wgt id='1349'> +1.3481094e+00 </wgt>
<wgt id='1350'> +1.3513353e+00 </wgt>
<wgt id='1351'> +1.3499464e+00 </wgt>
<wgt id='1352'> +1.3497450e+00 </wgt>
<wgt id='1353'> +1.3538787e+00 </wgt>
<wgt id='1354'> +1.3470401e+00 </wgt>
<wgt id='1355'> +1.3462273e+00 </wgt>
<wgt id='1356'> +1.3526940e+00 </wgt>
<wgt id='1357'> +1.3525477e+00 </wgt>
<wgt id='1358'> +1.3481529e+00 </wgt>
<wgt id='1359'> +1.3488431e+00 </wgt>
<wgt id='1360'> +1.3519469e+00 </wgt>
<wgt id='1361'> +1.3586738e+00 </wgt>
<wgt id='1362'> +1.3431590e+00 </wgt>
<wgt id='1363'> +1.3565383e+00 </wgt>
<wgt id='1364'> +1.3418352e+00 </wgt>
<wgt id='1365'> +1.3513636e+00 </wgt>
<wgt id='1366'> +1.3496741e+00 </wgt>
<wgt id='1367'> +1.3456919e+00 </wgt>
<wgt id='1368'> +1.3521907e+00 </wgt>
<wgt id='1369'> +1.3445694e+00 </wgt>
<wgt id='1370'> +1.3550563e+00 </wgt>
<wgt id='1371'> +1.3477045e+00 </wgt>
<wgt id='1372'> +1.3534755e+00 </wgt>
<wgt id='1373'> +1.3520081e+00 </wgt>
<wgt id='1374'> +1.3485699e+00 </wgt>
<wgt id='1375'> +1.3541597e+00 </wgt>
<wgt id='1376'> +1.3485486e+00 </wgt>
<wgt id='1377'> +1.3501438e+00 </wgt>
<wgt id='1378'> +1.3491454e+00 </wgt>
<wgt id='1379'> +1.3527479e+00 </wgt>
<wgt id='1380'> +1.3521627e+00 </wgt>
<wgt id='1381'> +1.3455711e+00 </wgt>
<wgt id='1382'> +1.3467310e+00 </wgt>
<wgt id='1383'> +1.3493663e+00 </wgt>
<wgt id='1384'> +1.3532062e+00 </wgt>
<wgt id='1385'> +1.3498358e+00 </wgt>
<wgt id='1386'> +1.3495143e+00 </wgt>
<wgt id='1387'> +1.3495313e+00 </wgt>
<wgt id='1388'> +1.3497033e+00 </wgt>
<wgt id='1389'> +1.3498779e+00 </wgt>
<wgt id='1390'> +1.3500564e+00 </wgt>
<wgt id='1391'> +1.3502112e+00 </wgt>
<wgt id='1392'> +1.4328133e+00 </wgt>
<wgt id='1393'> +1.4330293e+00 </wgt>
<wgt id='1394'> +1.4325552e+00 </wgt>
<wgt id='1395'> +1.4335866e+00 </wgt>
<wgt id='1396'> +1.4322189e+00 </wgt>
<wgt id='1397'> +1.4386613e+00 </wgt>
<wgt id='1398'> +1.4271485e+00 </wgt>
<wgt id='1399'> +1.4421324e+00 </wgt>
<wgt id='1400'> +1.4213453e+00 </wgt>
<wgt id='1401'> +1.4265006e+00 </wgt>
<wgt id='1402'> +1.4405159e+00 </wgt>
<wgt id='1403'> +1.4307637e+00 </wgt>
<wgt id='1404'> +1.4368647e+00 </wgt>
<wgt id='1405'> +1.4314454e+00 </wgt>
<wgt id='1406'> +1.4346694e+00 </wgt>
<wgt id='1407'> +1.4303473e+00 </wgt>
<wgt id='1408'> +1.4345171e+00 </wgt>
<wgt id='1409'> +1.4306027e+00 </wgt>
<wgt id='1410'> +1.4351240e+00 </wgt>
<wgt id='1411'> +1.4330200e+00 </wgt>
<wgt id='1412'> +1.4326123e+00 </wgt>
<wgt id='1413'> +1.4405294e+00 </wgt>
<wgt id='1414'> +1.4245814e+00 </wgt>
<wgt id='1415'> +1.4390018e+00 </wgt>
<wgt id='1416'> +1.4257785e+00 </wgt>
<wgt id='1417'> +1.4341925e+00 </wgt>
<wgt id='1418'> +1.4309525e+00 </wgt>
<wgt id='1419'> +1.4355137e+00 </wgt>
<wgt id='1420'> +1.4309831e+00 </wgt>
<wgt id='1421'> +1.4395833e+00 </wgt>
<wgt id='1422'> +1.4250334e+00 </wgt>
<wgt id='1423'> +1.4391696e+00 </wgt>
<wgt id='1424'> +1.4280166e+00 </wgt>
<wgt id='1425'> +1.4333418e+00 </wgt>
<wgt id='1426'> +1.4320610e+00 </wgt>
<wgt id='1427'> +1.4306102e+00 </wgt>
<wgt id='1428'> +1.4365145e+00 </wgt>
<wgt id='1429'> +1.4322893e+00 </wgt>
<wgt id='1430'> +1.4335488e+00 </wgt>
<wgt id='1431'> +1.4329071e+00 </wgt>
<wgt id='1432'> +1.4324803e+00 </wgt>
<wgt id='1433'> +1.4268510e+00 </wgt>
<wgt id='1434'> +1.4387028e+00 </wgt>
<wgt id='1435'> +1.4331772e+00 </wgt>
<wgt id='1436'> +1.4351165e+00 </wgt>
<wgt id='1437'> +1.4325528e+00 </wgt>
<wgt id='1438'> +1.4336914e+00 </wgt>
<wgt id='1439'> +1.4372332e+00 </wgt>
<wgt id='1440'> +1.4212843e+00 </wgt>
<wgt id='1441'> +1.4362111e+00 </wgt>
<wgt id='1442'> +1.4315350e+00 </wgt>
<wgt id='1443'> +1.4288462e+00 </wgt>
<wgt id='1444'> +1.4291676e+00 </wgt>
<wgt id='1445'> +1.4285562e+00 </wgt>
<wgt id='1446'> +1.4295946e+00 </wgt>
<wgt id='1447'> +1.4282894e+00 </wgt>
<wgt id='1448'> +1.4351819e+00 </wgt>
<wgt id='1449'> +1.4230215e+00 </wgt>
<wgt id='1450'> +1.4378916e+00 </wgt>
<wgt id='1451'> +1.4187642e+00 </wgt>
<wgt id='1452'> +1.4229453e+00 </wgt>
<wgt id='1453'> +1.4345196e+00 </wgt>
<wgt id='1454'> +1.4264747e+00 </wgt>
<wgt id='1455'> +1.4339098e+00 </wgt>
<wgt id='1456'> +1.4272482e+00 </wgt>
<wgt id='1457'> +1.4316833e+00 </wgt>
<wgt id='1458'> +1.4265431e+00 </wgt>
<wgt id='1459'> +1.4301480e+00 </wgt>
<wgt id='1460'> +1.4265848e+00 </wgt>
<wgt id='1461'> +1.4313124e+00 </wgt>
<wgt id='1462'> +1.4298062e+00 </wgt>
<wgt id='1463'> +1.4280392e+00 </wgt>
<wgt id='1464'> +1.4356096e+00 </wgt>
<wgt id='1465'> +1.4199783e+00 </wgt>
<wgt id='1466'> +1.4364799e+00 </wgt>
<wgt id='1467'> +1.4228446e+00 </wgt>
<wgt id='1468'> +1.4247305e+00 </wgt>
<wgt id='1469'> +1.4329365e+00 </wgt>
<wgt id='1470'> +1.4314207e+00 </wgt>
<wgt id='1471'> +1.4274577e+00 </wgt>
<wgt id='1472'> +1.4343345e+00 </wgt>
<wgt id='1473'> +1.4222959e+00 </wgt>
<wgt id='1474'> +1.4334762e+00 </wgt>
<wgt id='1475'> +1.4237110e+00 </wgt>
<wgt id='1476'> +1.4290275e+00 </wgt>
<wgt id='1477'> +1.4286085e+00 </wgt>
<wgt id='1478'> +1.4269323e+00 </wgt>
<wgt id='1479'> +1.4323122e+00 </wgt>
<wgt id='1480'> +1.4283461e+00 </wgt>
<wgt id='1481'> +1.4296744e+00 </wgt>
<wgt id='1482'> +1.4286939e+00 </wgt>
<wgt id='1483'> +1.4288514e+00 </wgt>
<wgt id='1484'> +1.4226283e+00 </wgt>
<wgt id='1485'> +1.4349387e+00 </wgt>
<wgt id='1486'> +1.4300412e+00 </wgt>
<wgt id='1487'> +1.4305663e+00 </wgt>
<wgt id='1488'> +1.4283378e+00 </wgt>
<wgt id='1489'> +1.4302858e+00 </wgt>
<wgt id='1490'> +1.4344896e+00 </wgt>
<wgt id='1491'> +1.4165601e+00 </wgt>
<wgt id='1492'> +1.4337744e+00 </wgt>
<wgt id='1493'> +1.4267010e+00 </wgt>
<wgt id='1494'> +1.3757737e+00 </wgt>
<wgt id='1495'> +1.3712626e+00 </wgt>
<wgt id='1496'> +1.3731757e+00 </wgt>
<wgt id='1497'> +1.3748131e+00 </wgt>
<wgt id='1498'> +1.3757245e+00 </wgt>
<wgt id='1499'> +1.3755561e+00 </wgt>
<wgt id='1500'> +1.3857480e+00 </wgt>
<wgt id='1501'> +1.3836661e+00 </wgt>
<wgt id='1502'> +1.3816667e+00 </wgt>
<wgt id='1503'> +1.3796687e+00 </wgt>
<wgt id='1504'> +1.3776245e+00 </wgt>
<wgt id='1505'> +1.3738437e+00 </wgt>
<wgt id='1506'> +1.3719681e+00 </wgt>
<wgt id='1507'> +1.3701438e+00 </wgt>
<wgt id='1508'> +1.3755561e+00 </wgt>
<wgt id='1509'> +1.3760892e+00 </wgt>
<wgt id='1510'> +1.3758055e+00 </wgt>
<wgt id='1511'> +1.3753612e+00 </wgt>
<wgt id='1512'> +1.3751654e+00 </wgt>
<wgt id='1513'> +1.3539538e+00 </wgt>
<wgt id='1514'> +1.3534710e+00 </wgt>
<wgt id='1515'> +1.3545052e+00 </wgt>
<wgt id='1516'> +1.3565621e+00 </wgt>
<wgt id='1517'> +1.3513048e+00 </wgt>
<wgt id='1518'> +1.3563113e+00 </wgt>
<wgt id='1519'> +1.3529350e+00 </wgt>
<wgt id='1520'> +1.3657004e+00 </wgt>
<wgt id='1521'> +1.3422580e+00 </wgt>
<wgt id='1522'> +1.3507398e+00 </wgt>
<wgt id='1523'> +1.3569754e+00 </wgt>
<wgt id='1524'> +1.3629360e+00 </wgt>
<wgt id='1525'> +1.3500602e+00 </wgt>
<wgt id='1526'> +1.3548248e+00 </wgt>
<wgt id='1527'> +1.3528564e+00 </wgt>
<wgt id='1528'> +1.3506201e+00 </wgt>
<wgt id='1529'> +1.3575286e+00 </wgt>
<wgt id='1530'> +1.3584051e+00 </wgt>
<wgt id='1531'> +1.3513631e+00 </wgt>
<wgt id='1532'> +1.3507932e+00 </wgt>
<wgt id='1533'> +1.3582279e+00 </wgt>
<wgt id='1534'> +1.3460670e+00 </wgt>
<wgt id='1535'> +1.3595158e+00 </wgt>
<wgt id='1536'> +1.3530078e+00 </wgt>
<wgt id='1537'> +1.3547456e+00 </wgt>
<wgt id='1538'> +1.3523836e+00 </wgt>
<wgt id='1539'> +1.3568418e+00 </wgt>
<wgt id='1540'> +1.3570769e+00 </wgt>
<wgt id='1541'> +1.3510866e+00 </wgt>
<wgt id='1542'> +1.3495987e+00 </wgt>
<wgt id='1543'> +1.3664124e+00 </wgt>
<wgt id='1544'> +1.3549680e+00 </wgt>
<wgt id='1545'> +1.3511772e+00 </wgt>
<wgt id='1546'> +1.3506946e+00 </wgt>
<wgt id='1547'> +1.3593791e+00 </wgt>
<wgt id='1548'> +1.3583601e+00 </wgt>
<wgt id='1549'> +1.3511564e+00 </wgt>
<wgt id='1550'> +1.3539840e+00 </wgt>
<wgt id='1551'> +1.3539277e+00 </wgt>
<wgt id='1552'> +1.3542118e+00 </wgt>
<wgt id='1553'> +1.3535909e+00 </wgt>
<wgt id='1554'> +1.3547347e+00 </wgt>
<wgt id='1555'> +1.3503965e+00 </wgt>
<wgt id='1556'> +1.3541599e+00 </wgt>
<wgt id='1557'> +1.3566840e+00 </wgt>
<wgt id='1558'> +1.3446186e+00 </wgt>
<wgt id='1559'> +1.3584342e+00 </wgt>
<wgt id='1560'> +1.3571665e+00 </wgt>
<wgt id='1561'> +1.3523134e+00 </wgt>
<wgt id='1562'> +1.3473233e+00 </wgt>
<wgt id='1563'> +1.3571670e+00 </wgt>
<wgt id='1564'> +1.3539538e+00 </wgt>
<wgt id='1565'> +1.3536076e+00 </wgt>
<wgt id='1566'> +1.3488435e+00 </wgt>
<wgt id='1567'> +1.3516896e+00 </wgt>
<wgt id='1568'> +1.3604608e+00 </wgt>
<wgt id='1569'> +1.3587087e+00 </wgt>
<wgt id='1570'> +1.3568960e+00 </wgt>
<wgt id='1571'> +1.3552516e+00 </wgt>
<wgt id='1572'> +1.3532842e+00 </wgt>
<wgt id='1573'> +1.3500592e+00 </wgt>
<wgt id='1574'> +1.3477839e+00 </wgt>
<wgt id='1575'> +1.3461968e+00 </wgt>
<wgt id='1576'> +1.3516896e+00 </wgt>
<wgt id='1577'> +1.3524525e+00 </wgt>
<wgt id='1578'> +1.3520533e+00 </wgt>
<wgt id='1579'> +1.3513243e+00 </wgt>
<wgt id='1580'> +1.3510234e+00 </wgt>
<wgt id='1581'> +1.3721704e+00 </wgt>
<wgt id='1582'> +1.3714104e+00 </wgt>
<wgt id='1583'> +1.3784236e+00 </wgt>
<wgt id='1584'> +1.3656091e+00 </wgt>
<wgt id='1585'> +1.3755631e+00 </wgt>
<wgt id='1586'> +1.3686684e+00 </wgt>
<wgt id='1587'> +1.3477741e+00 </wgt>
<wgt id='1588'> +1.3738842e+00 </wgt>
<wgt id='1589'> +1.3728975e+00 </wgt>
<wgt id='1590'> +1.3682252e+00 </wgt>
<wgt id='1591'> +1.3695232e+00 </wgt>
<wgt id='1592'> +1.3818541e+00 </wgt>
<wgt id='1593'> +1.3757366e+00 </wgt>
<wgt id='1594'> +1.3701931e+00 </wgt>
<wgt id='1595'> +1.3720843e+00 </wgt>
<wgt id='1596'> +1.3813664e+00 </wgt>
<wgt id='1597'> +1.3757159e+00 </wgt>
<wgt id='1598'> +1.3787277e+00 </wgt>
<wgt id='1599'> +1.3726780e+00 </wgt>
<wgt id='1600'> +1.3770461e+00 </wgt>
<wgt id='1601'> +1.3707259e+00 </wgt>
<wgt id='1602'> +1.3711690e+00 </wgt>
<wgt id='1603'> +1.3710571e+00 </wgt>
<wgt id='1604'> +1.3735238e+00 </wgt>
<wgt id='1605'> +1.3741296e+00 </wgt>
<wgt id='1606'> +1.3719798e+00 </wgt>
<wgt id='1607'> +1.3759266e+00 </wgt>
<wgt id='1608'> +1.3697845e+00 </wgt>
<wgt id='1609'> +1.3712134e+00 </wgt>
<wgt id='1610'> +1.3708347e+00 </wgt>
<wgt id='1611'> +1.3772469e+00 </wgt>
<wgt id='1612'> +1.3498389e+00 </wgt>
<wgt id='1613'> +1.3465667e+00 </wgt>
<wgt id='1614'> +1.3550929e+00 </wgt>
<wgt id='1615'> +1.3549955e+00 </wgt>
<wgt id='1616'> +1.3489243e+00 </wgt>
<wgt id='1617'> +1.3490789e+00 </wgt>
<wgt id='1618'> +1.3502727e+00 </wgt>
<wgt id='1619'> +1.3428469e+00 </wgt>
<wgt id='1620'> +1.3490457e+00 </wgt>
<wgt id='1621'> +1.3528319e+00 </wgt>
<wgt id='1622'> +1.3526522e+00 </wgt>
<wgt id='1623'> +1.3496471e+00 </wgt>
<wgt id='1624'> +1.3495949e+00 </wgt>
<wgt id='1625'> +1.3537371e+00 </wgt>
<wgt id='1626'> +1.3575848e+00 </wgt>
<wgt id='1627'> +1.3483000e+00 </wgt>
<wgt id='1628'> +1.3499440e+00 </wgt>
<wgt id='1629'> +1.3512651e+00 </wgt>
<wgt id='1630'> +1.3531219e+00 </wgt>
<wgt id='1631'> +1.3506939e+00 </wgt>
<wgt id='1632'> +1.3534689e+00 </wgt>
<wgt id='1633'> +1.3458715e+00 </wgt>
<wgt id='1634'> +1.3548189e+00 </wgt>
<wgt id='1635'> +1.3485177e+00 </wgt>
<wgt id='1636'> +1.3521117e+00 </wgt>
<wgt id='1637'> +1.3545069e+00 </wgt>
<wgt id='1638'> +1.3490601e+00 </wgt>
<wgt id='1639'> +1.3529393e+00 </wgt>
<wgt id='1640'> +1.3504834e+00 </wgt>
<wgt id='1641'> +1.3366661e+00 </wgt>
<wgt id='1642'> +1.3471496e+00 </wgt>
<wgt id='1643'> +1.3483029e+00 </wgt>
<wgt id='1644'> +1.3474638e+00 </wgt>
<wgt id='1645'> +1.3500578e+00 </wgt>
<wgt id='1646'> +1.3502382e+00 </wgt>
<wgt id='1647'> +1.3480498e+00 </wgt>
<wgt id='1648'> +1.3491083e+00 </wgt>
<wgt id='1649'> +1.3512776e+00 </wgt>
<wgt id='1650'> +1.3477342e+00 </wgt>
<wgt id='1651'> +1.3502523e+00 </wgt>
<wgt id='1652'> +1.3512455e+00 </wgt>
<wgt id='1653'> +1.3487983e+00 </wgt>
<wgt id='1654'> +1.3472647e+00 </wgt>
<wgt id='1655'> +1.3523750e+00 </wgt>
<wgt id='1656'> +1.3491267e+00 </wgt>
<wgt id='1657'> +1.3517868e+00 </wgt>
<wgt id='1658'> +1.3520689e+00 </wgt>
<wgt id='1659'> +1.3539687e+00 </wgt>
<wgt id='1660'> +1.3543977e+00 </wgt>
<wgt id='1661'> +1.3520248e+00 </wgt>
<wgt id='1662'> +1.3596309e+00 </wgt>
<wgt id='1663'> +1.3579291e+00 </wgt>
<wgt id='1664'> +1.3492514e+00 </wgt>
<wgt id='1665'> +1.3517583e+00 </wgt>
<wgt id='1666'> +1.3558435e+00 </wgt>
<wgt id='1667'> +1.3512648e+00 </wgt>
<wgt id='1668'> +1.3499086e+00 </wgt>
<wgt id='1669'> +1.3518957e+00 </wgt>
<wgt id='1670'> +1.3610327e+00 </wgt>
<wgt id='1671'> +1.3566865e+00 </wgt>
<wgt id='1672'> +1.3501249e+00 </wgt>
<wgt id='1673'> +1.3535324e+00 </wgt>
<wgt id='1674'> +1.3495677e+00 </wgt>
<wgt id='1675'> +1.3522563e+00 </wgt>
<wgt id='1676'> +1.3542896e+00 </wgt>
<wgt id='1677'> +1.3522301e+00 </wgt>
<wgt id='1678'> +1.3479928e+00 </wgt>
<wgt id='1679'> +1.3525719e+00 </wgt>
<wgt id='1680'> +1.3474294e+00 </wgt>
<wgt id='1681'> +1.3514605e+00 </wgt>
<wgt id='1682'> +1.3467932e+00 </wgt>
<wgt id='1683'> +1.3514981e+00 </wgt>
<wgt id='1684'> +1.3470589e+00 </wgt>
<wgt id='1685'> +1.3472196e+00 </wgt>
<wgt id='1686'> +1.3504369e+00 </wgt>
<wgt id='1687'> +1.3495825e+00 </wgt>
<wgt id='1688'> +1.3523448e+00 </wgt>
<wgt id='1689'> +1.3487641e+00 </wgt>
<wgt id='1690'> +1.3531323e+00 </wgt>
<wgt id='1691'> +1.3522004e+00 </wgt>
<wgt id='1692'> +1.3514523e+00 </wgt>
<wgt id='1693'> +1.3458921e+00 </wgt>
<wgt id='1694'> +1.3487600e+00 </wgt>
<wgt id='1695'> +1.3521408e+00 </wgt>
<wgt id='1696'> +1.3527074e+00 </wgt>
<wgt id='1697'> +1.3500079e+00 </wgt>
<wgt id='1698'> +1.3470103e+00 </wgt>
<wgt id='1699'> +1.3529946e+00 </wgt>
<wgt id='1700'> +1.3457999e+00 </wgt>
<wgt id='1701'> +1.3517524e+00 </wgt>
<wgt id='1702'> +1.3491188e+00 </wgt>
<wgt id='1703'> +1.3510126e+00 </wgt>
<wgt id='1704'> +1.3485582e+00 </wgt>
<wgt id='1705'> +1.3528406e+00 </wgt>
<wgt id='1706'> +1.3520655e+00 </wgt>
<wgt id='1707'> +1.3488485e+00 </wgt>
<wgt id='1708'> +1.3504693e+00 </wgt>
<wgt id='1709'> +1.3531735e+00 </wgt>
<wgt id='1710'> +1.3497546e+00 </wgt>
<wgt id='1711'> +1.3506294e+00 </wgt>
<wgt id='1712'> +1.3507629e+00 </wgt>
<wgt id='1713'> +1.3278647e+00 </wgt>
<wgt id='1714'> +1.3663208e+00 </wgt>
<wgt id='1715'> +1.3120483e+00 </wgt>
<wgt id='1716'> +1.2930387e+00 </wgt>
<wgt id='1717'> +1.3028981e+00 </wgt>
<wgt id='1718'> +1.2334434e+00 </wgt>
<wgt id='1719'> +1.2687433e+00 </wgt>
<wgt id='1720'> +1.3413246e+00 </wgt>
<wgt id='1721'> +1.2488383e+00 </wgt>
<wgt id='1722'> +1.2966671e+00 </wgt>
<wgt id='1723'> +1.3285243e+00 </wgt>
<wgt id='1724'> +1.3694612e+00 </wgt>
<wgt id='1725'> +1.3436215e+00 </wgt>
<wgt id='1726'> +1.3546625e+00 </wgt>
<wgt id='1727'> +1.3039027e+00 </wgt>
<wgt id='1728'> +1.3295148e+00 </wgt>
<wgt id='1729'> +1.3184663e+00 </wgt>
<wgt id='1730'> +1.3384617e+00 </wgt>
<wgt id='1731'> +1.2725955e+00 </wgt>
<wgt id='1732'> +1.3382885e+00 </wgt>
<wgt id='1733'> +1.3569086e+00 </wgt>
<wgt id='1734'> +1.3317764e+00 </wgt>
<wgt id='1735'> +1.2927158e+00 </wgt>
<wgt id='1736'> +1.2928898e+00 </wgt>
<wgt id='1737'> +1.3101475e+00 </wgt>
<wgt id='1738'> +1.3101219e+00 </wgt>
<wgt id='1739'> +1.2507716e+00 </wgt>
<wgt id='1740'> +1.2880327e+00 </wgt>
<wgt id='1741'> +1.3386113e+00 </wgt>
<wgt id='1742'> +1.3646254e+00 </wgt>
<wgt id='1743'> +1.3205092e+00 </wgt>
<wgt id='1744'> +1.3215330e+00 </wgt>
<wgt id='1745'> +1.2673946e+00 </wgt>
<wgt id='1746'> +1.2243201e+00 </wgt>
<wgt id='1747'> +1.2917579e+00 </wgt>
<wgt id='1748'> +1.3108238e+00 </wgt>
<wgt id='1749'> +1.3366467e+00 </wgt>
<wgt id='1750'> +1.3292152e+00 </wgt>
<wgt id='1751'> +1.3054434e+00 </wgt>
<wgt id='1752'> +1.2423375e+00 </wgt>
<wgt id='1753'> +1.2924177e+00 </wgt>
<wgt id='1754'> +1.3591411e+00 </wgt>
<wgt id='1755'> +1.3145729e+00 </wgt>
<wgt id='1756'> +1.3045311e+00 </wgt>
<wgt id='1757'> +1.2781821e+00 </wgt>
<wgt id='1758'> +1.2607096e+00 </wgt>
<wgt id='1759'> +1.2795195e+00 </wgt>
<wgt id='1760'> +1.2622316e+00 </wgt>
<wgt id='1761'> +1.3153073e+00 </wgt>
<wgt id='1762'> +1.3039027e+00 </wgt>
<wgt id='1763'> +1.3008243e+00 </wgt>
<wgt id='1764'> +1.3475547e+00 </wgt>
<wgt id='1765'> +1.3225180e+00 </wgt>
<wgt id='1766'> +1.4033238e+00 </wgt>
<wgt id='1767'> +1.3326004e+00 </wgt>
<wgt id='1768'> +1.2915795e+00 </wgt>
<wgt id='1769'> +1.3034933e+00 </wgt>
<wgt id='1770'> +1.3217752e+00 </wgt>
<wgt id='1771'> +1.3087538e+00 </wgt>
<wgt id='1772'> +1.3383134e+00 </wgt>
<wgt id='1773'> +1.3127818e+00 </wgt>
<wgt id='1774'> +1.3309327e+00 </wgt>
<wgt id='1775'> +1.3520066e+00 </wgt>
<wgt id='1776'> +1.3363894e+00 </wgt>
<wgt id='1777'> +1.3209974e+00 </wgt>
<wgt id='1778'> +1.2991274e+00 </wgt>
<wgt id='1779'> +1.2957209e+00 </wgt>
<wgt id='1780'> +1.3309601e+00 </wgt>
<wgt id='1781'> +1.2999526e+00 </wgt>
<wgt id='1782'> +1.3503095e+00 </wgt>
<wgt id='1783'> +1.2590655e+00 </wgt>
<wgt id='1784'> +1.3382372e+00 </wgt>
<wgt id='1785'> +1.2863859e+00 </wgt>
<wgt id='1786'> +1.3446937e+00 </wgt>
<wgt id='1787'> +1.3399491e+00 </wgt>
<wgt id='1788'> +1.3046726e+00 </wgt>
<wgt id='1789'> +1.3190902e+00 </wgt>
<wgt id='1790'> +1.2882814e+00 </wgt>
<wgt id='1791'> +1.2558422e+00 </wgt>
<wgt id='1792'> +1.2971738e+00 </wgt>
<wgt id='1793'> +1.3905076e+00 </wgt>
<wgt id='1794'> +1.3451211e+00 </wgt>
<wgt id='1795'> +1.3374362e+00 </wgt>
<wgt id='1796'> +1.2904669e+00 </wgt>
<wgt id='1797'> +1.2541663e+00 </wgt>
<wgt id='1798'> +1.4062555e+00 </wgt>
<wgt id='1799'> +1.3626185e+00 </wgt>
<wgt id='1800'> +1.3300461e+00 </wgt>
<wgt id='1801'> +1.3116492e+00 </wgt>
<wgt id='1802'> +1.3212093e+00 </wgt>
<wgt id='1803'> +1.3134974e+00 </wgt>
<wgt id='1804'> +1.2820747e+00 </wgt>
<wgt id='1805'> +1.3138377e+00 </wgt>
<wgt id='1806'> +1.3513241e+00 </wgt>
<wgt id='1807'> +1.2527856e+00 </wgt>
<wgt id='1808'> +1.3350244e+00 </wgt>
<wgt id='1809'> +1.3075242e+00 </wgt>
<wgt id='1810'> +1.3009913e+00 </wgt>
<wgt id='1811'> +1.3250648e+00 </wgt>
<wgt id='1812'> +1.2772592e+00 </wgt>
<wgt id='1813'> +1.3423970e+00 </wgt>
<wgt id='1814'> +1.2618733e+00 </wgt>
<wgt id='1815'> +1.3209871e+00 </wgt>
<wgt id='1816'> +1.3882744e+00 </wgt>
<wgt id='1817'> +1.4015807e+00 </wgt>
<wgt id='1818'> +1.3356578e+00 </wgt>
<wgt id='1819'> +1.3820485e+00 </wgt>
<wgt id='1820'> +1.4078470e+00 </wgt>
<wgt id='1821'> +1.4351190e+00 </wgt>
<wgt id='1822'> +1.3895175e+00 </wgt>
<wgt id='1823'> +1.3958229e+00 </wgt>
<wgt id='1824'> +1.3456833e+00 </wgt>
<wgt id='1825'> +1.4045004e+00 </wgt>
<wgt id='1826'> +1.3814668e+00 </wgt>
<wgt id='1827'> +1.3516279e+00 </wgt>
<wgt id='1828'> +1.4210693e+00 </wgt>
<wgt id='1829'> +1.3833663e+00 </wgt>
<wgt id='1830'> +1.3428111e+00 </wgt>
<wgt id='1831'> +1.3655118e+00 </wgt>
<wgt id='1832'> +1.4099615e+00 </wgt>
<wgt id='1833'> +1.3677097e+00 </wgt>
<wgt id='1834'> +1.3933258e+00 </wgt>
<wgt id='1835'> +1.3997999e+00 </wgt>
<wgt id='1836'> +1.4055531e+00 </wgt>
<wgt id='1837'> +1.4081619e+00 </wgt>
<wgt id='1838'> +1.3738131e+00 </wgt>
<wgt id='1839'> +1.4624377e+00 </wgt>
<wgt id='1840'> +1.3830484e+00 </wgt>
<wgt id='1841'> +1.3601198e+00 </wgt>
<wgt id='1842'> +1.4092377e+00 </wgt>
<wgt id='1843'> +1.3791551e+00 </wgt>
<wgt id='1844'> +1.3770939e+00 </wgt>
<wgt id='1845'> +1.3696722e+00 </wgt>
<wgt id='1846'> +1.4051874e+00 </wgt>
<wgt id='1847'> +1.3819646e+00 </wgt>
<wgt id='1848'> +1.3673134e+00 </wgt>
<wgt id='1849'> +1.3775304e+00 </wgt>
<wgt id='1850'> +1.4241664e+00 </wgt>
<wgt id='1851'> +1.4037174e+00 </wgt>
<wgt id='1852'> +1.3998135e+00 </wgt>
<wgt id='1853'> +1.3447125e+00 </wgt>
<wgt id='1854'> +1.4146374e+00 </wgt>
<wgt id='1855'> +1.4177621e+00 </wgt>
<wgt id='1856'> +1.3924521e+00 </wgt>
<wgt id='1857'> +1.4388206e+00 </wgt>
<wgt id='1858'> +1.3810361e+00 </wgt>
<wgt id='1859'> +1.4103662e+00 </wgt>
<wgt id='1860'> +1.3949253e+00 </wgt>
<wgt id='1861'> +1.3921714e+00 </wgt>
<wgt id='1862'> +1.4456618e+00 </wgt>
<wgt id='1863'> +1.3532623e+00 </wgt>
<wgt id='1864'> +1.3847162e+00 </wgt>
<wgt id='1865'> +1.3364878e+00 </wgt>
<wgt id='1866'> +1.3725666e+00 </wgt>
<wgt id='1867'> +1.3946267e+00 </wgt>
<wgt id='1868'> +1.3756041e+00 </wgt>
<wgt id='1869'> +1.4045281e+00 </wgt>
<wgt id='1870'> +1.4014982e+00 </wgt>
<wgt id='1871'> +1.3940301e+00 </wgt>
<wgt id='1872'> +1.3775267e+00 </wgt>
<wgt id='1873'> +1.4329539e+00 </wgt>
<wgt id='1874'> +1.3644589e+00 </wgt>
<wgt id='1875'> +1.3306258e+00 </wgt>
<wgt id='1876'> +1.3694524e+00 </wgt>
<wgt id='1877'> +1.3665832e+00 </wgt>
<wgt id='1878'> +1.3362312e+00 </wgt>
<wgt id='1879'> +1.4364989e+00 </wgt>
<wgt id='1880'> +1.3284082e+00 </wgt>
<wgt id='1881'> +1.4263866e+00 </wgt>
<wgt id='1882'> +1.3936604e+00 </wgt>
<wgt id='1883'> +1.4786591e+00 </wgt>
<wgt id='1884'> +1.3853458e+00 </wgt>
<wgt id='1885'> +1.3987692e+00 </wgt>
<wgt id='1886'> +1.3531033e+00 </wgt>
<wgt id='1887'> +1.4413628e+00 </wgt>
<wgt id='1888'> +1.3870361e+00 </wgt>
<wgt id='1889'> +1.4074125e+00 </wgt>
<wgt id='1890'> +1.4218214e+00 </wgt>
<wgt id='1891'> +1.3346500e+00 </wgt>
<wgt id='1892'> +1.3566310e+00 </wgt>
<wgt id='1893'> +1.3848934e+00 </wgt>
<wgt id='1894'> +1.4140863e+00 </wgt>
<wgt id='1895'> +1.4054551e+00 </wgt>
<wgt id='1896'> +1.3804684e+00 </wgt>
<wgt id='1897'> +1.3858910e+00 </wgt>
<wgt id='1898'> +1.3663230e+00 </wgt>
<wgt id='1899'> +1.3880283e+00 </wgt>
<wgt id='1900'> +1.4199766e+00 </wgt>
<wgt id='1901'> +1.3207780e+00 </wgt>
<wgt id='1902'> +1.3694664e+00 </wgt>
<wgt id='1903'> +1.3550509e+00 </wgt>
<wgt id='1904'> +1.3858571e+00 </wgt>
<wgt id='1905'> +1.4035855e+00 </wgt>
<wgt id='1906'> +1.3557484e+00 </wgt>
<wgt id='1907'> +1.4016190e+00 </wgt>
<wgt id='1908'> +1.4191741e+00 </wgt>
<wgt id='1909'> +1.3969866e+00 </wgt>
<wgt id='1910'> +1.4184604e+00 </wgt>
<wgt id='1911'> +1.2878562e+00 </wgt>
<wgt id='1912'> +1.4083938e+00 </wgt>
<wgt id='1913'> +1.3877173e+00 </wgt>
<wgt id='1914'> +1.4307893e+00 </wgt>
<wgt id='1915'> +1.4028840e+00 </wgt>
<wgt id='1916'> +1.3547067e+00 </wgt>
<wgt id='1917'> +1.5668104e+00 </wgt>
<wgt id='1918'> +1.6506675e+00 </wgt>
<wgt id='1919'> +1.3882744e+00 </wgt>
<wgt id='1920'> +1.4015807e+00 </wgt>
<wgt id='1921'> +1.3356578e+00 </wgt>
<wgt id='1922'> +1.3820485e+00 </wgt>
<wgt id='1923'> +1.4078470e+00 </wgt>
<wgt id='1924'> +1.4351190e+00 </wgt>
<wgt id='1925'> +1.3895175e+00 </wgt>
<wgt id='1926'> +1.3958229e+00 </wgt>
<wgt id='1927'> +1.3456833e+00 </wgt>
<wgt id='1928'> +1.4045004e+00 </wgt>
<wgt id='1929'> +1.3814668e+00 </wgt>
<wgt id='1930'> +1.3516279e+00 </wgt>
<wgt id='1931'> +1.4210693e+00 </wgt>
<wgt id='1932'> +1.3833663e+00 </wgt>
<wgt id='1933'> +1.3428111e+00 </wgt>
<wgt id='1934'> +1.3655118e+00 </wgt>
<wgt id='1935'> +1.4099615e+00 </wgt>
<wgt id='1936'> +1.3677097e+00 </wgt>
<wgt id='1937'> +1.3933258e+00 </wgt>
<wgt id='1938'> +1.3997999e+00 </wgt>
<wgt id='1939'> +1.4055531e+00 </wgt>
<wgt id='1940'> +1.4081619e+00 </wgt>
<wgt id='1941'> +1.3738131e+00 </wgt>
<wgt id='1942'> +1.4624377e+00 </wgt>
<wgt id='1943'> +1.3830484e+00 </wgt>
<wgt id='1944'> +1.3601198e+00 </wgt>
<wgt id='1945'> +1.4092377e+00 </wgt>
<wgt id='1946'> +1.3791551e+00 </wgt>
<wgt id='1947'> +1.3770939e+00 </wgt>
<wgt id='1948'> +1.3696722e+00 </wgt>
<wgt id='1949'> +1.4051874e+00 </wgt>
<wgt id='1950'> +1.3819646e+00 </wgt>
<wgt id='1951'> +1.3673134e+00 </wgt>
<wgt id='1952'> +1.3775304e+00 </wgt>
<wgt id='1953'> +1.4241664e+00 </wgt>
<wgt id='1954'> +1.4037174e+00 </wgt>
<wgt id='1955'> +1.3998135e+00 </wgt>
<wgt id='1956'> +1.3447125e+00 </wgt>
<wgt id='1957'> +1.4146374e+00 </wgt>
<wgt id='1958'> +1.4177621e+00 </wgt>
<wgt id='1959'> +1.3924521e+00 </wgt>
<wgt id='1960'> +1.4388206e+00 </wgt>
<wgt id='1961'> +1.3810361e+00 </wgt>
<wgt id='1962'> +1.4103662e+00 </wgt>
<wgt id='1963'> +1.3949253e+00 </wgt>
<wgt id='1964'> +1.3921714e+00 </wgt>
<wgt id='1965'> +1.4456618e+00 </wgt>
<wgt id='1966'> +1.3532623e+00 </wgt>
<wgt id='1967'> +1.3847162e+00 </wgt>
<wgt id='1968'> +1.3364878e+00 </wgt>
<wgt id='1969'> +1.3725666e+00 </wgt>
<wgt id='1970'> +1.3946267e+00 </wgt>
<wgt id='1971'> +1.3756041e+00 </wgt>
<wgt id='1972'> +1.4045281e+00 </wgt>
<wgt id='1973'> +1.4014982e+00 </wgt>
<wgt id='1974'> +1.3940301e+00 </wgt>
<wgt id='1975'> +1.3775267e+00 </wgt>
<wgt id='1976'> +1.4329539e+00 </wgt>
<wgt id='1977'> +1.3644589e+00 </wgt>
<wgt id='1978'> +1.3306258e+00 </wgt>
<wgt id='1979'> +1.3694524e+00 </wgt>
<wgt id='1980'> +1.3665832e+00 </wgt>
<wgt id='1981'> +1.3362312e+00 </wgt>
<wgt id='1982'> +1.4364989e+00 </wgt>
<wgt id='1983'> +1.3284082e+00 </wgt>
<wgt id='1984'> +1.4263866e+00 </wgt>
<wgt id='1985'> +1.3936604e+00 </wgt>
<wgt id='1986'> +1.4786591e+00 </wgt>
<wgt id='1987'> +1.3853458e+00 </wgt>
<wgt id='1988'> +1.3987692e+00 </wgt>
<wgt id='1989'> +1.3531033e+00 </wgt>
<wgt id='1990'> +1.4413628e+00 </wgt>
<wgt id='1991'> +1.3870361e+00 </wgt>
<wgt id='1992'> +1.4074125e+00 </wgt>
<wgt id='1993'> +1.4218214e+00 </wgt>
<wgt id='1994'> +1.3346500e+00 </wgt>
<wgt id='1995'> +1.3566310e+00 </wgt>
<wgt id='1996'> +1.3848934e+00 </wgt>
<wgt id='1997'> +1.4140863e+00 </wgt>
<wgt id='1998'> +1.4054551e+00 </wgt>
<wgt id='1999'> +1.3804684e+00 </wgt>
<wgt id='2000'> +1.3858910e+00 </wgt>
<wgt id='2001'> +1.3663230e+00 </wgt>
<wgt id='2002'> +1.3880283e+00 </wgt>
<wgt id='2003'> +1.4199766e+00 </wgt>
<wgt id='2004'> +1.3207780e+00 </wgt>
<wgt id='2005'> +1.3694664e+00 </wgt>
<wgt id='2006'> +1.3550509e+00 </wgt>
<wgt id='2007'> +1.3858571e+00 </wgt>
<wgt id='2008'> +1.4035855e+00 </wgt>
<wgt id='2009'> +1.3557484e+00 </wgt>
<wgt id='2010'> +1.4016190e+00 </wgt>
<wgt id='2011'> +1.4191741e+00 </wgt>
<wgt id='2012'> +1.3969866e+00 </wgt>
<wgt id='2013'> +1.4184604e+00 </wgt>
<wgt id='2014'> +1.2878562e+00 </wgt>
<wgt id='2015'> +1.4083938e+00 </wgt>
<wgt id='2016'> +1.3877173e+00 </wgt>
<wgt id='2017'> +1.4307893e+00 </wgt>
<wgt id='2018'> +1.4028840e+00 </wgt>
<wgt id='2019'> +1.3547067e+00 </wgt>
<wgt id='2020'> +1.3905678e+00 </wgt>
<wgt id='2021'> +1.3919907e+00 </wgt>
<wgt id='2022'> +1.3686457e+00 </wgt>
</rwgt>
</event>
<event>
13      1 +1.3581722e+00 8.31084900e+01 7.81860800e-03 1.21346800e-01
        2 -1    0    0  501    0 +0.0000000000e+00 +0.0000000000e+00 +8.6335959303e+02 8.6335959303e+02 2.5500000000e-03 0.0000e+00 -1.0000e+00
       21 -1    0    0  502  503 +0.0000000000e+00 +0.0000000000e+00 -2.6261839652e+02 2.6261839652e+02 0.0000000000e+00 0.0000e+00 -1.0000e+00
  8000001  2    1    2  502    0 +7.2727226899e+00 -3.4709920127e+01 +2.2053385139e+02 6.4022533700e+02 5.9999635956e+02 0.0000e+00 0.0000e+00
        1  1    1    2  501    0 -1.7592331974e+01 +3.6610948170e+01 +4.3138954549e+02 4.3329757864e+02 5.0400000000e-03 0.0000e+00 -1.0000e+00
       -5  1    1    2    0  503 +1.0319609285e+01 -1.9010280427e+00 -5.1182200370e+01 5.2455073910e+01 4.6700000000e+00 0.0000e+00 1.0000e+00
        6  2    3    3  502    0 +4.6016603418e+01 +2.0877697675e+02 -1.9728518691e+01 2.8322569644e+02 1.8472202593e+02 0.0000e+00 0.0000e+00
        5  1    6    6  502    0 +8.4786791830e+01 +1.4874090457e+02 +9.2777527924e+00 1.7152417427e+02 4.6700000000e+00 0.0000e+00 -1.0000e+00
       24  2    6    6    0    0 -3.8770188412e+01 +6.0036072178e+01 -2.9006271483e+01 1.1170152217e+02 8.0798569276e+01 0.0000e+00 0.0000e+00
       14  1    8    8    0    0 -5.6337268621e+01 +5.8168201446e+01 -3.9901043615e+00 8.1076189032e+01 0.0000000000e+00 0.0000e+00 -1.0000e+00
      -13  1    8    8    0    0 +1.7567080209e+01 +1.8678707322e+00 -2.5016167122e+01 3.0625333135e+01 1.0566000000e-01 0.0000e+00 1.0000e+00
       23  2    3    3    0    0 -3.8743880728e+01 -2.4348689688e+02 +2.4026237008e+02 3.5699964056e+02 9.4529252816e+01 0.0000e+00 0.0000e+00
       16  1   11   11    0    0 -2.2068439373e+00 -1.5232185853e+02 +1.9864184762e+02 2.5033058616e+02 0.0000000000e+00 0.0000e+00 -1.0000e+00
      -16  1   11   11    0    0 -3.6537036791e+01 -9.1165038354e+01 +4.1620522462e+01 1.0666905440e+02 0.0000000000e+00 0.0000e+00 1.0000e+00
<mgrwt>
<rscale>  1 0.58081038e+02</rscale>
<asrwt>0</asrwt>
<pdfrwt beam="1">  1       21 0.40402830e-01 0.83108490e+02</pdfrwt>
<pdfrwt beam="2">  1        2 0.13282455e+00 0.40590402e+02</pdfrwt>
<totfact> 0.31029432e+03</totfact>
</mgrwt>
<rwgt>
<wgt id='1001'> +1.3581722e+00 </wgt>
<wgt id='1002'> +8.1999435e-01 </wgt>
<wgt id='1003'> +8.1972697e-01 </wgt>
<wgt id='1004'> +9.4352932e-01 </wgt>
<wgt id='1005'> +7.4373122e-01 </wgt>
<wgt id='1006'> +1.2144536e+00 </wgt>
<wgt id='1007'> +7.5653347e-01 </wgt>
<wgt id='1008'> +7.5629913e-01 </wgt>
<wgt id='1009'> +8.6409343e-01 </wgt>
<wgt id='1010'> +6.8940445e-01 </wgt>
<wgt id='1011'> +1.5421059e+00 </wgt>
<wgt id='1012'> +8.9539349e-01 </wgt>
<wgt id='1013'> +8.9508427e-01 </wgt>
<wgt id='1014'> +1.0395465e+00 </wgt>
<wgt id='1015'> +8.0758868e-01 </wgt>
<wgt id='1016'> +1.2858177e+00 </wgt>
<wgt id='1017'> +7.7914099e-01 </wgt>
<wgt id='1018'> +7.7888990e-01 </wgt>
<wgt id='1019'> +8.9508427e-01 </wgt>
<wgt id='1020'> +7.0737449e-01 </wgt>
<wgt id='1021'> +1.1497555e+00 </wgt>
<wgt id='1022'> +7.1884182e-01 </wgt>
<wgt id='1023'> +7.1862190e-01 </wgt>
<wgt id='1024'> +8.1972697e-01 </wgt>
<wgt id='1025'> +6.5570343e-01 </wgt>
<wgt id='1026'> +1.4599526e+00 </wgt>
<wgt id='1027'> +8.5078362e-01 </wgt>
<wgt id='1028'> +8.5049306e-01 </wgt>
<wgt id='1029'> +9.8617152e-01 </wgt>
<wgt id='1030'> +7.6811032e-01 </wgt>
<wgt id='1031'> +1.4327856e+00 </wgt>
<wgt id='1032'> +8.6437764e-01 </wgt>
<wgt id='1033'> +8.6409343e-01 </wgt>
<wgt id='1034'> +9.9502421e-01 </wgt>
<wgt id='1035'> +7.8307073e-01 </wgt>
<wgt id='1036'> +1.2811716e+00 </wgt>
<wgt id='1037'> +7.9748185e-01 </wgt>
<wgt id='1038'> +7.9723265e-01 </wgt>
<wgt id='1039'> +9.1125295e-01 </wgt>
<wgt id='1040'> +7.2587035e-01 </wgt>
<wgt id='1041'> +1.6268240e+00 </wgt>
<wgt id='1042'> +9.4385785e-01 </wgt>
<wgt id='1043'> +9.4352932e-01 </wgt>
<wgt id='1044'> +1.0962817e+00 </wgt>
<wgt id='1045'> +8.5030591e-01 </wgt>
<wgt id='1046'> +1.3581722e+00 </wgt>
<wgt id='1047'> +1.3581722e+00 </wgt>
<wgt id='1048'> +1.3581722e+00 </wgt>
<wgt id='1049'> +1.3607107e+00 </wgt>
<wgt id='1050'> +1.3555629e+00 </wgt>
<wgt id='1051'> +1.3580249e+00 </wgt>
<wgt id='1052'> +1.3574295e+00 </wgt>
<wgt id='1053'> +1.3641600e+00 </wgt>
<wgt id='1054'> +1.3568747e+00 </wgt>
<wgt id='1055'> +1.3602906e+00 </wgt>
<wgt id='1056'> +1.3603585e+00 </wgt>
<wgt id='1057'> +1.3596263e+00 </wgt>
<wgt id='1058'> +1.3570908e+00 </wgt>
<wgt id='1059'> +1.3552676e+00 </wgt>
<wgt id='1060'> +1.3566608e+00 </wgt>
<wgt id='1061'> +1.3585809e+00 </wgt>
<wgt id='1062'> +1.3621081e+00 </wgt>
<wgt id='1063'> +1.3597127e+00 </wgt>
<wgt id='1064'> +1.3590002e+00 </wgt>
<wgt id='1065'> +1.3592776e+00 </wgt>
<wgt id='1066'> +1.3552110e+00 </wgt>
<wgt id='1067'> +1.3632335e+00 </wgt>
<wgt id='1068'> +1.3524538e+00 </wgt>
<wgt id='1069'> +1.3565540e+00 </wgt>
<wgt id='1070'> +1.3580831e+00 </wgt>
<wgt id='1071'> +1.3567087e+00 </wgt>
<wgt id='1072'> +1.3603407e+00 </wgt>
<wgt id='1073'> +1.3580839e+00 </wgt>
<wgt id='1074'> +1.3567447e+00 </wgt>
<wgt id='1075'> +1.3542691e+00 </wgt>
<wgt id='1076'> +1.3610784e+00 </wgt>
<wgt id='1077'> +1.3620006e+00 </wgt>
<wgt id='1078'> +1.3577094e+00 </wgt>
<wgt id='1079'> +1.3641210e+00 </wgt>
<wgt id='1080'> +1.3578805e+00 </wgt>
<wgt id='1081'> +1.3600002e+00 </wgt>
<wgt id='1082'> +1.3604429e+00 </wgt>
<wgt id='1083'> +1.3574979e+00 </wgt>
<wgt id='1084'> +1.3560931e+00 </wgt>
<wgt id='1085'> +1.3613758e+00 </wgt>
<wgt id='1086'> +1.3569093e+00 </wgt>
<wgt id='1087'> +1.3579029e+00 </wgt>
<wgt id='1088'> +1.3612086e+00 </wgt>
<wgt id='1089'> +1.3628542e+00 </wgt>
<wgt id='1090'> +1.3599935e+00 </wgt>
<wgt id='1091'> +1.3578640e+00 </wgt>
<wgt id='1092'> +1.3562876e+00 </wgt>
<wgt id='1093'> +1.3576902e+00 </wgt>
<wgt id='1094'> +1.3568888e+00 </wgt>
<wgt id='1095'> +1.3567735e+00 </wgt>
<wgt id='1096'> +1.3543473e+00 </wgt>
<wgt id='1097'> +1.3588307e+00 </wgt>
<wgt id='1098'> +1.3561237e+00 </wgt>
<wgt id='1099'> +1.3577169e+00 </wgt>
<wgt id='1100'> +1.3596827e+00 </wgt>
<wgt id='1101'> +1.3588089e+00 </wgt>
<wgt id='1102'> +1.3596032e+00 </wgt>
<wgt id='1103'> +1.3592340e+00 </wgt>
<wgt id='1104'> +1.3591304e+00 </wgt>
<wgt id='1105'> +1.3600659e+00 </wgt>
<wgt id='1106'> +1.3584641e+00 </wgt>
<wgt id='1107'> +1.3597218e+00 </wgt>
<wgt id='1108'> +1.3576369e+00 </wgt>
<wgt id='1109'> +1.3587485e+00 </wgt>
<wgt id='1110'> +1.3579308e+00 </wgt>
<wgt id='1111'> +1.3574439e+00 </wgt>
<wgt id='1112'> +1.3571798e+00 </wgt>
<wgt id='1113'> +1.3591026e+00 </wgt>
<wgt id='1114'> +1.3577738e+00 </wgt>
<wgt id='1115'> +1.3585730e+00 </wgt>
<wgt id='1116'> +1.3576262e+00 </wgt>
<wgt id='1117'> +1.3584996e+00 </wgt>
<wgt id='1118'> +1.3573252e+00 </wgt>
<wgt id='1119'> +1.3577986e+00 </wgt>
<wgt id='1120'> +1.3588873e+00 </wgt>
<wgt id='1121'> +1.3574678e+00 </wgt>
<wgt id='1122'> +1.3582703e+00 </wgt>
<wgt id='1123'> +1.3577166e+00 </wgt>
<wgt id='1124'> +1.3589258e+00 </wgt>
<wgt id='1125'> +1.3597019e+00 </wgt>
<wgt id='1126'> +1.3586515e+00 </wgt>
<wgt id='1127'> +1.3585669e+00 </wgt>
<wgt id='1128'> +1.3585539e+00 </wgt>
<wgt id='1129'> +1.3573449e+00 </wgt>
<wgt id='1130'> +1.3580744e+00 </wgt>
<wgt id='1131'> +1.3581816e+00 </wgt>
<wgt id='1132'> +1.3587805e+00 </wgt>
<wgt id='1133'> +1.3584787e+00 </wgt>
<wgt id='1134'> +1.3574248e+00 </wgt>
<wgt id='1135'> +1.3576505e+00 </wgt>
<wgt id='1136'> +1.3570600e+00 </wgt>
<wgt id='1137'> +1.3578370e+00 </wgt>
<wgt id='1138'> +1.3589161e+00 </wgt>
<wgt id='1139'> +1.3584175e+00 </wgt>
<wgt id='1140'> +1.3588666e+00 </wgt>
<wgt id='1141'> +1.3582361e+00 </wgt>
<wgt id='1142'> +1.3579577e+00 </wgt>
<wgt id='1143'> +1.3592525e+00 </wgt>
<wgt id='1144'> +1.3580302e+00 </wgt>
<wgt id='1145'> +1.3582427e+00 </wgt>
<wgt id='1146'> +1.3583144e+00 </wgt>
<wgt id='1147'> +1.3585902e+00 </wgt>
<wgt id='1148'> +1.3581722e+00 </wgt>
<wgt id='1149'> +1.3642106e+00 </wgt>
<wgt id='1150'> +1.3744461e+00 </wgt>
<wgt id='1151'> +1.3817168e+00 </wgt>
<wgt id='1152'> +1.3859768e+00 </wgt>
<wgt id='1153'> +1.3407868e+00 </wgt>
<wgt id='1154'> +1.3465592e+00 </wgt>
<wgt id='1155'> +1.3811842e+00 </wgt>
<wgt id='1156'> +1.3877095e+00 </wgt>
<wgt id='1157'> +1.3695869e+00 </wgt>
<wgt id='1158'> +1.3700074e+00 </wgt>
<wgt id='1159'> +1.3165705e+00 </wgt>
<wgt id='1160'> +1.3734913e+00 </wgt>
<wgt id='1161'> +1.3663090e+00 </wgt>
<wgt id='1162'> +1.3502540e+00 </wgt>
<wgt id='1163'> +1.3852951e+00 </wgt>
<wgt id='1164'> +1.3713928e+00 </wgt>
<wgt id='1165'> +1.3662944e+00 </wgt>
<wgt id='1166'> +1.3676052e+00 </wgt>
<wgt id='1167'> +1.3696312e+00 </wgt>
<wgt id='1168'> +1.3626815e+00 </wgt>
<wgt id='1169'> +1.3455680e+00 </wgt>
<wgt id='1170'> +1.3579258e+00 </wgt>
<wgt id='1171'> +1.3554500e+00 </wgt>
<wgt id='1172'> +1.3692697e+00 </wgt>
<wgt id='1173'> +1.3414377e+00 </wgt>
<wgt id='1174'> +1.3801065e+00 </wgt>
<wgt id='1175'> +1.3923106e+00 </wgt>
<wgt id='1176'> +1.3009904e+00 </wgt>
<wgt id='1177'> +1.3909513e+00 </wgt>
<wgt id='1178'> +1.3691758e+00 </wgt>
<wgt id='1179'> +1.3810819e+00 </wgt>
<wgt id='1180'> +1.3742947e+00 </wgt>
<wgt id='1181'> +1.3761205e+00 </wgt>
<wgt id='1182'> +1.3690895e+00 </wgt>
<wgt id='1183'> +1.3444215e+00 </wgt>
<wgt id='1184'> +1.3528706e+00 </wgt>
<wgt id='1185'> +1.3854516e+00 </wgt>
<wgt id='1186'> +1.3731311e+00 </wgt>
<wgt id='1187'> +1.3568960e+00 </wgt>
<wgt id='1188'> +1.3766851e+00 </wgt>
<wgt id='1189'> +1.3705393e+00 </wgt>
<wgt id='1190'> +1.3708997e+00 </wgt>
<wgt id='1191'> +1.3638987e+00 </wgt>
<wgt id='1192'> +1.3420087e+00 </wgt>
<wgt id='1193'> +1.3555505e+00 </wgt>
<wgt id='1194'> +1.3822891e+00 </wgt>
<wgt id='1195'> +1.3640814e+00 </wgt>
<wgt id='1196'> +1.3663540e+00 </wgt>
<wgt id='1197'> +1.3612767e+00 </wgt>
<wgt id='1198'> +1.3855749e+00 </wgt>
<wgt id='1199'> +1.3526958e+00 </wgt>
<wgt id='1200'> +1.3710175e+00 </wgt>
<wgt id='1201'> +1.3655464e+00 </wgt>
<wgt id='1202'> +1.3649752e+00 </wgt>
<wgt id='1203'> +1.3717623e+00 </wgt>
<wgt id='1204'> +1.3757053e+00 </wgt>
<wgt id='1205'> +1.3540383e+00 </wgt>
<wgt id='1206'> +1.3653469e+00 </wgt>
<wgt id='1207'> +1.3713420e+00 </wgt>
<wgt id='1208'> +1.3884549e+00 </wgt>
<wgt id='1209'> +1.3896395e+00 </wgt>
<wgt id='1210'> +1.3460388e+00 </wgt>
<wgt id='1211'> +1.3570130e+00 </wgt>
<wgt id='1212'> +1.3335701e+00 </wgt>
<wgt id='1213'> +1.3792985e+00 </wgt>
<wgt id='1214'> +1.3695755e+00 </wgt>
<wgt id='1215'> +1.4008078e+00 </wgt>
<wgt id='1216'> +1.3591810e+00 </wgt>
<wgt id='1217'> +1.3706605e+00 </wgt>
<wgt id='1218'> +1.3715637e+00 </wgt>
<wgt id='1219'> +1.3376256e+00 </wgt>
<wgt id='1220'> +1.3713803e+00 </wgt>
<wgt id='1221'> +1.3531577e+00 </wgt>
<wgt id='1222'> +1.3548332e+00 </wgt>
<wgt id='1223'> +1.3570340e+00 </wgt>
<wgt id='1224'> +1.3666776e+00 </wgt>
<wgt id='1225'> +1.3882851e+00 </wgt>
<wgt id='1226'> +1.3247547e+00 </wgt>
<wgt id='1227'> +1.3991862e+00 </wgt>
<wgt id='1228'> +1.3607669e+00 </wgt>
<wgt id='1229'> +1.3474668e+00 </wgt>
<wgt id='1230'> +1.3341939e+00 </wgt>
<wgt id='1231'> +1.3662944e+00 </wgt>
<wgt id='1232'> +1.3230570e+00 </wgt>
<wgt id='1233'> +1.3585412e+00 </wgt>
<wgt id='1234'> +1.3933683e+00 </wgt>
<wgt id='1235'> +1.3502088e+00 </wgt>
<wgt id='1236'> +1.3759550e+00 </wgt>
<wgt id='1237'> +1.3384010e+00 </wgt>
<wgt id='1238'> +1.3214029e+00 </wgt>
<wgt id='1239'> +1.3710224e+00 </wgt>
<wgt id='1240'> +1.3756223e+00 </wgt>
<wgt id='1241'> +1.3695195e+00 </wgt>
<wgt id='1242'> +1.3583160e+00 </wgt>
<wgt id='1243'> +1.3553127e+00 </wgt>
<wgt id='1244'> +1.3503156e+00 </wgt>
<wgt id='1245'> +1.3730010e+00 </wgt>
<wgt id='1246'> +1.3422446e+00 </wgt>
<wgt id='1247'> +1.3774907e+00 </wgt>
<wgt id='1248'> +1.3727798e+00 </wgt>
<wgt id='1249'> +1.3669931e+00 </wgt>
<wgt id='1250'> +1.3143347e+00 </wgt>
<wgt id='1251'> +1.3051206e+00 </wgt>
<wgt id='1252'> +1.3409289e+00 </wgt>
<wgt id='1253'> +1.3270128e+00 </wgt>
<wgt id='1254'> +1.1366953e+00 </wgt>
<wgt id='1255'> +1.3291296e+00 </wgt>
<wgt id='1256'> +1.3341414e+00 </wgt>
<wgt id='1257'> +1.3262272e+00 </wgt>
<wgt id='1258'> +1.3259905e+00 </wgt>
<wgt id='1259'> +1.3307385e+00 </wgt>
<wgt id='1260'> +1.3305887e+00 </wgt>
<wgt id='1261'> +1.3271289e+00 </wgt>
<wgt id='1262'> +1.3303504e+00 </wgt>
<wgt id='1263'> +1.3283491e+00 </wgt>
<wgt id='1264'> +1.3285507e+00 </wgt>
<wgt id='1265'> +1.3295587e+00 </wgt>
<wgt id='1266'> +1.3300780e+00 </wgt>
<wgt id='1267'> +1.3281871e+00 </wgt>
<wgt id='1268'> +1.3401865e+00 </wgt>
<wgt id='1269'> +1.3180407e+00 </wgt>
<wgt id='1270'> +1.3266138e+00 </wgt>
<wgt id='1271'> +1.3302509e+00 </wgt>
<wgt id='1272'> +1.3292043e+00 </wgt>
<wgt id='1273'> +1.3290373e+00 </wgt>
<wgt id='1274'> +1.3288158e+00 </wgt>
<wgt id='1275'> +1.3297578e+00 </wgt>
<wgt id='1276'> +1.3261385e+00 </wgt>
<wgt id='1277'> +1.3323006e+00 </wgt>
<wgt id='1278'> +1.3218628e+00 </wgt>
<wgt id='1279'> +1.3347320e+00 </wgt>
<wgt id='1280'> +1.3260368e+00 </wgt>
<wgt id='1281'> +1.3369055e+00 </wgt>
<wgt id='1282'> +1.3380378e+00 </wgt>
<wgt id='1283'> +1.3185172e+00 </wgt>
<wgt id='1284'> +1.3268628e+00 </wgt>
<wgt id='1285'> +1.3301696e+00 </wgt>
<wgt id='1286'> +1.3287164e+00 </wgt>
<wgt id='1287'> +1.3290751e+00 </wgt>
<wgt id='1288'> +1.3291568e+00 </wgt>
<wgt id='1289'> +1.3288848e+00 </wgt>
<wgt id='1290'> +1.3311346e+00 </wgt>
<wgt id='1291'> +1.3284150e+00 </wgt>
<wgt id='1292'> +1.3342370e+00 </wgt>
<wgt id='1293'> +1.3210433e+00 </wgt>
<wgt id='1294'> +1.3212849e+00 </wgt>
<wgt id='1295'> +1.3301678e+00 </wgt>
<wgt id='1296'> +1.3407003e+00 </wgt>
<wgt id='1297'> +1.3440613e+00 </wgt>
<wgt id='1298'> +1.3379709e+00 </wgt>
<wgt id='1299'> +1.3394355e+00 </wgt>
<wgt id='1300'> +1.3420799e+00 </wgt>
<wgt id='1301'> +1.3380779e+00 </wgt>
<wgt id='1302'> +1.3446237e+00 </wgt>
<wgt id='1303'> +1.3378517e+00 </wgt>
<wgt id='1304'> +1.3425915e+00 </wgt>
<wgt id='1305'> +1.3413516e+00 </wgt>
<wgt id='1306'> +1.3397417e+00 </wgt>
<wgt id='1307'> +1.3442118e+00 </wgt>
<wgt id='1308'> +1.3384645e+00 </wgt>
<wgt id='1309'> +1.3417739e+00 </wgt>
<wgt id='1310'> +1.3392728e+00 </wgt>
<wgt id='1311'> +1.3511680e+00 </wgt>
<wgt id='1312'> +1.3369175e+00 </wgt>
<wgt id='1313'> +1.3422256e+00 </wgt>
<wgt id='1314'> +1.3382365e+00 </wgt>
<wgt id='1315'> +1.3407487e+00 </wgt>
<wgt id='1316'> +1.3405795e+00 </wgt>
<wgt id='1317'> +1.3358782e+00 </wgt>
<wgt id='1318'> +1.3497213e+00 </wgt>
<wgt id='1319'> +1.3460644e+00 </wgt>
<wgt id='1320'> +1.3378670e+00 </wgt>
<wgt id='1321'> +1.3363131e+00 </wgt>
<wgt id='1322'> +1.3427844e+00 </wgt>
<wgt id='1323'> +1.3389254e+00 </wgt>
<wgt id='1324'> +1.3424645e+00 </wgt>
<wgt id='1325'> +1.3408401e+00 </wgt>
<wgt id='1326'> +1.3402145e+00 </wgt>
<wgt id='1327'> +1.3426758e+00 </wgt>
<wgt id='1328'> +1.3399456e+00 </wgt>
<wgt id='1329'> +1.3421272e+00 </wgt>
<wgt id='1330'> +1.3399044e+00 </wgt>
<wgt id='1331'> +1.3361428e+00 </wgt>
<wgt id='1332'> +1.3433832e+00 </wgt>
<wgt id='1333'> +1.3498199e+00 </wgt>
<wgt id='1334'> +1.3286163e+00 </wgt>
<wgt id='1335'> +1.3425534e+00 </wgt>
<wgt id='1336'> +1.3402093e+00 </wgt>
<wgt id='1337'> +1.3407003e+00 </wgt>
<wgt id='1338'> +1.3396122e+00 </wgt>
<wgt id='1339'> +1.3401042e+00 </wgt>
<wgt id='1340'> +1.3405255e+00 </wgt>
<wgt id='1341'> +1.3411577e+00 </wgt>
<wgt id='1342'> +1.3414484e+00 </wgt>
<wgt id='1343'> +1.3416493e+00 </wgt>
<wgt id='1344'> +1.3304786e+00 </wgt>
<wgt id='1345'> +1.3348309e+00 </wgt>
<wgt id='1346'> +1.3261959e+00 </wgt>
<wgt id='1347'> +1.3339211e+00 </wgt>
<wgt id='1348'> +1.3278977e+00 </wgt>
<wgt id='1349'> +1.3269723e+00 </wgt>
<wgt id='1350'> +1.3334868e+00 </wgt>
<wgt id='1351'> +1.3304633e+00 </wgt>
<wgt id='1352'> +1.3305350e+00 </wgt>
<wgt id='1353'> +1.3331969e+00 </wgt>
<wgt id='1354'> +1.3285835e+00 </wgt>
<wgt id='1355'> +1.3285509e+00 </wgt>
<wgt id='1356'> +1.3319878e+00 </wgt>
<wgt id='1357'> +1.3295950e+00 </wgt>
<wgt id='1358'> +1.3309798e+00 </wgt>
<wgt id='1359'> +1.3263145e+00 </wgt>
<wgt id='1360'> +1.3408411e+00 </wgt>
<wgt id='1361'> +1.3368297e+00 </wgt>
<wgt id='1362'> +1.3262546e+00 </wgt>
<wgt id='1363'> +1.3312364e+00 </wgt>
<wgt id='1364'> +1.3296805e+00 </wgt>
<wgt id='1365'> +1.3338105e+00 </wgt>
<wgt id='1366'> +1.3293964e+00 </wgt>
<wgt id='1367'> +1.3243471e+00 </wgt>
<wgt id='1368'> +1.3333387e+00 </wgt>
<wgt id='1369'> +1.3288653e+00 </wgt>
<wgt id='1370'> +1.3317519e+00 </wgt>
<wgt id='1371'> +1.3315425e+00 </wgt>
<wgt id='1372'> +1.3295147e+00 </wgt>
<wgt id='1373'> +1.3348073e+00 </wgt>
<wgt id='1374'> +1.3290654e+00 </wgt>
<wgt id='1375'> +1.3338609e+00 </wgt>
<wgt id='1376'> +1.3296132e+00 </wgt>
<wgt id='1377'> +1.3307062e+00 </wgt>
<wgt id='1378'> +1.3303687e+00 </wgt>
<wgt id='1379'> +1.3353240e+00 </wgt>
<wgt id='1380'> +1.3258269e+00 </wgt>
<wgt id='1381'> +1.3246325e+00 </wgt>
<wgt id='1382'> +1.3299453e+00 </wgt>
<wgt id='1383'> +1.3300781e+00 </wgt>
<wgt id='1384'> +1.3314950e+00 </wgt>
<wgt id='1385'> +1.3304786e+00 </wgt>
<wgt id='1386'> +1.3288068e+00 </wgt>
<wgt id='1387'> +1.3295437e+00 </wgt>
<wgt id='1388'> +1.3300125e+00 </wgt>
<wgt id='1389'> +1.3307850e+00 </wgt>
<wgt id='1390'> +1.3310838e+00 </wgt>
<wgt id='1391'> +1.3312085e+00 </wgt>
<wgt id='1392'> +1.3840372e+00 </wgt>
<wgt id='1393'> +1.3838739e+00 </wgt>
<wgt id='1394'> +1.3842287e+00 </wgt>
<wgt id='1395'> +1.3853867e+00 </wgt>
<wgt id='1396'> +1.3830914e+00 </wgt>
<wgt id='1397'> +1.3884162e+00 </wgt>
<wgt id='1398'> +1.3798309e+00 </wgt>
<wgt id='1399'> +1.3843448e+00 </wgt>
<wgt id='1400'> +1.3836876e+00 </wgt>
<wgt id='1401'> +1.3802809e+00 </wgt>
<wgt id='1402'> +1.3886763e+00 </wgt>
<wgt id='1403'> +1.3840506e+00 </wgt>
<wgt id='1404'> +1.3840514e+00 </wgt>
<wgt id='1405'> +1.3815063e+00 </wgt>
<wgt id='1406'> +1.3875777e+00 </wgt>
<wgt id='1407'> +1.3833970e+00 </wgt>
<wgt id='1408'> +1.3845046e+00 </wgt>
<wgt id='1409'> +1.3899448e+00 </wgt>
<wgt id='1410'> +1.3772490e+00 </wgt>
<wgt id='1411'> +1.3815364e+00 </wgt>
<wgt id='1412'> +1.3859938e+00 </wgt>
<wgt id='1413'> +1.3844202e+00 </wgt>
<wgt id='1414'> +1.3836741e+00 </wgt>
<wgt id='1415'> +1.3930253e+00 </wgt>
<wgt id='1416'> +1.3750062e+00 </wgt>
<wgt id='1417'> +1.3824791e+00 </wgt>
<wgt id='1418'> +1.3859283e+00 </wgt>
<wgt id='1419'> +1.3861613e+00 </wgt>
<wgt id='1420'> +1.3824749e+00 </wgt>
<wgt id='1421'> +1.3890888e+00 </wgt>
<wgt id='1422'> +1.3785123e+00 </wgt>
<wgt id='1423'> +1.3843899e+00 </wgt>
<wgt id='1424'> +1.3831486e+00 </wgt>
<wgt id='1425'> +1.3853406e+00 </wgt>
<wgt id='1426'> +1.3827539e+00 </wgt>
<wgt id='1427'> +1.3823053e+00 </wgt>
<wgt id='1428'> +1.3814299e+00 </wgt>
<wgt id='1429'> +1.3818733e+00 </wgt>
<wgt id='1430'> +1.3860366e+00 </wgt>
<wgt id='1431'> +1.3824422e+00 </wgt>
<wgt id='1432'> +1.3851979e+00 </wgt>
<wgt id='1433'> +1.3784821e+00 </wgt>
<wgt id='1434'> +1.3909164e+00 </wgt>
<wgt id='1435'> +1.3850025e+00 </wgt>
<wgt id='1436'> +1.3831684e+00 </wgt>
<wgt id='1437'> +1.3815373e+00 </wgt>
<wgt id='1438'> +1.3902292e+00 </wgt>
<wgt id='1439'> +1.3924477e+00 </wgt>
<wgt id='1440'> +1.3688900e+00 </wgt>
<wgt id='1441'> +1.3874055e+00 </wgt>
<wgt id='1442'> +1.3843641e+00 </wgt>
<wgt id='1443'> +1.3646306e+00 </wgt>
<wgt id='1444'> +1.3644620e+00 </wgt>
<wgt id='1445'> +1.3647966e+00 </wgt>
<wgt id='1446'> +1.3660460e+00 </wgt>
<wgt id='1447'> +1.3636779e+00 </wgt>
<wgt id='1448'> +1.3691597e+00 </wgt>
<wgt id='1449'> +1.3604379e+00 </wgt>
<wgt id='1450'> +1.3647575e+00 </wgt>
<wgt id='1451'> +1.3644835e+00 </wgt>
<wgt id='1452'> +1.3607550e+00 </wgt>
<wgt id='1453'> +1.3683751e+00 </wgt>
<wgt id='1454'> +1.3643086e+00 </wgt>
<wgt id='1455'> +1.3653166e+00 </wgt>
<wgt id='1456'> +1.3615948e+00 </wgt>
<wgt id='1457'> +1.3700549e+00 </wgt>
<wgt id='1458'> +1.3643931e+00 </wgt>
<wgt id='1459'> +1.3647808e+00 </wgt>
<wgt id='1460'> +1.3700782e+00 </wgt>
<wgt id='1461'> +1.3580178e+00 </wgt>
<wgt id='1462'> +1.3608901e+00 </wgt>
<wgt id='1463'> +1.3678351e+00 </wgt>
<wgt id='1464'> +1.3652598e+00 </wgt>
<wgt id='1465'> +1.3638088e+00 </wgt>
<wgt id='1466'> +1.3766060e+00 </wgt>
<wgt id='1467'> +1.3565283e+00 </wgt>
<wgt id='1468'> +1.3646186e+00 </wgt>
<wgt id='1469'> +1.3647955e+00 </wgt>
<wgt id='1470'> +1.3668028e+00 </wgt>
<wgt id='1471'> +1.3632950e+00 </wgt>
<wgt id='1472'> +1.3687648e+00 </wgt>
<wgt id='1473'> +1.3599143e+00 </wgt>
<wgt id='1474'> +1.3653023e+00 </wgt>
<wgt id='1475'> +1.3632755e+00 </wgt>
<wgt id='1476'> +1.3665151e+00 </wgt>
<wgt id='1477'> +1.3631501e+00 </wgt>
<wgt id='1478'> +1.3631940e+00 </wgt>
<wgt id='1479'> +1.3618229e+00 </wgt>
<wgt id='1480'> +1.3628441e+00 </wgt>
<wgt id='1481'> +1.3663279e+00 </wgt>
<wgt id='1482'> +1.3629729e+00 </wgt>
<wgt id='1483'> +1.3660061e+00 </wgt>
<wgt id='1484'> +1.3591909e+00 </wgt>
<wgt id='1485'> +1.3712587e+00 </wgt>
<wgt id='1486'> +1.3666745e+00 </wgt>
<wgt id='1487'> +1.3629974e+00 </wgt>
<wgt id='1488'> +1.3619578e+00 </wgt>
<wgt id='1489'> +1.3709718e+00 </wgt>
<wgt id='1490'> +1.3755088e+00 </wgt>
<wgt id='1491'> +1.3484289e+00 </wgt>
<wgt id='1492'> +1.3702064e+00 </wgt>
<wgt id='1493'> +1.3643033e+00 </wgt>
<wgt id='1494'> +1.3281209e+00 </wgt>
<wgt id='1495'> +1.3015028e+00 </wgt>
<wgt id='1496'> +1.3106572e+00 </wgt>
<wgt id='1497'> +1.3195070e+00 </wgt>
<wgt id='1498'> +1.3359330e+00 </wgt>
<wgt id='1499'> +1.3278145e+00 </wgt>
<wgt id='1500'> +1.3359248e+00 </wgt>
<wgt id='1501'> +1.3345602e+00 </wgt>
<wgt id='1502'> +1.3330079e+00 </wgt>
<wgt id='1503'> +1.3313704e+00 </wgt>
<wgt id='1504'> +1.3297491e+00 </wgt>
<wgt id='1505'> +1.3261742e+00 </wgt>
<wgt id='1506'> +1.3242464e+00 </wgt>
<wgt id='1507'> +1.3223284e+00 </wgt>
<wgt id='1508'> +1.3278145e+00 </wgt>
<wgt id='1509'> +1.3277587e+00 </wgt>
<wgt id='1510'> +1.3277709e+00 </wgt>
<wgt id='1511'> +1.3279469e+00 </wgt>
<wgt id='1512'> +1.3280373e+00 </wgt>
<wgt id='1513'> +1.3292572e+00 </wgt>
<wgt id='1514'> +1.3284709e+00 </wgt>
<wgt id='1515'> +1.3302790e+00 </wgt>
<wgt id='1516'> +1.3311314e+00 </wgt>
<wgt id='1517'> +1.3274172e+00 </wgt>
<wgt id='1518'> +1.3324593e+00 </wgt>
<wgt id='1519'> +1.3279911e+00 </wgt>
<wgt id='1520'> +1.3315545e+00 </wgt>
<wgt id='1521'> +1.3269383e+00 </wgt>
<wgt id='1522'> +1.3272299e+00 </wgt>
<wgt id='1523'> +1.3312644e+00 </wgt>
<wgt id='1524'> +1.3332008e+00 </wgt>
<wgt id='1525'> +1.3275476e+00 </wgt>
<wgt id='1526'> +1.3282332e+00 </wgt>
<wgt id='1527'> +1.3304942e+00 </wgt>
<wgt id='1528'> +1.3269165e+00 </wgt>
<wgt id='1529'> +1.3318243e+00 </wgt>
<wgt id='1530'> +1.3377605e+00 </wgt>
<wgt id='1531'> +1.3244477e+00 </wgt>
<wgt id='1532'> +1.3350251e+00 </wgt>
<wgt id='1533'> +1.3213493e+00 </wgt>
<wgt id='1534'> +1.3260766e+00 </wgt>
<wgt id='1535'> +1.3314727e+00 </wgt>
<wgt id='1536'> +1.3304944e+00 </wgt>
<wgt id='1537'> +1.3282054e+00 </wgt>
<wgt id='1538'> +1.3254423e+00 </wgt>
<wgt id='1539'> +1.3383554e+00 </wgt>
<wgt id='1540'> +1.3299895e+00 </wgt>
<wgt id='1541'> +1.3282820e+00 </wgt>
<wgt id='1542'> +1.3264153e+00 </wgt>
<wgt id='1543'> +1.3376361e+00 </wgt>
<wgt id='1544'> +1.3282325e+00 </wgt>
<wgt id='1545'> +1.3294808e+00 </wgt>
<wgt id='1546'> +1.3268188e+00 </wgt>
<wgt id='1547'> +1.3320472e+00 </wgt>
<wgt id='1548'> +1.3285847e+00 </wgt>
<wgt id='1549'> +1.3274285e+00 </wgt>
<wgt id='1550'> +1.3295679e+00 </wgt>
<wgt id='1551'> +1.3282065e+00 </wgt>
<wgt id='1552'> +1.3270768e+00 </wgt>
<wgt id='1553'> +1.3304472e+00 </wgt>
<wgt id='1554'> +1.3307664e+00 </wgt>
<wgt id='1555'> +1.3242190e+00 </wgt>
<wgt id='1556'> +1.3305737e+00 </wgt>
<wgt id='1557'> +1.3262004e+00 </wgt>
<wgt id='1558'> +1.3192130e+00 </wgt>
<wgt id='1559'> +1.3354819e+00 </wgt>
<wgt id='1560'> +1.3375578e+00 </wgt>
<wgt id='1561'> +1.3253270e+00 </wgt>
<wgt id='1562'> +1.3223896e+00 </wgt>
<wgt id='1563'> +1.3327078e+00 </wgt>
<wgt id='1564'> +1.3292572e+00 </wgt>
<wgt id='1565'> +1.3198988e+00 </wgt>
<wgt id='1566'> +1.3340585e+00 </wgt>
<wgt id='1567'> +1.3268705e+00 </wgt>
<wgt id='1568'> +1.3346097e+00 </wgt>
<wgt id='1569'> +1.3333903e+00 </wgt>
<wgt id='1570'> +1.3317476e+00 </wgt>
<wgt id='1571'> +1.3299555e+00 </wgt>
<wgt id='1572'> +1.3285512e+00 </wgt>
<wgt id='1573'> +1.3250129e+00 </wgt>
<wgt id='1574'> +1.3224200e+00 </wgt>
<wgt id='1575'> +1.3206165e+00 </wgt>
<wgt id='1576'> +1.3268705e+00 </wgt>
<wgt id='1577'> +1.3263921e+00 </wgt>
<wgt id='1578'> +1.3266409e+00 </wgt>
<wgt id='1579'> +1.3270668e+00 </wgt>
<wgt id='1580'> +1.3272959e+00 </wgt>
<wgt id='1581'> +1.3265767e+00 </wgt>
<wgt id='1582'> +1.3279566e+00 </wgt>
<wgt id='1583'> +1.3318254e+00 </wgt>
<wgt id='1584'> +1.3204535e+00 </wgt>
<wgt id='1585'> +1.3306048e+00 </wgt>
<wgt id='1586'> +1.3153097e+00 </wgt>
<wgt id='1587'> +1.3166866e+00 </wgt>
<wgt id='1588'> +1.3371403e+00 </wgt>
<wgt id='1589'> +1.3258896e+00 </wgt>
<wgt id='1590'> +1.3311257e+00 </wgt>
<wgt id='1591'> +1.3236854e+00 </wgt>
<wgt id='1592'> +1.3268683e+00 </wgt>
<wgt id='1593'> +1.3290532e+00 </wgt>
<wgt id='1594'> +1.3263953e+00 </wgt>
<wgt id='1595'> +1.3252031e+00 </wgt>
<wgt id='1596'> +1.3365094e+00 </wgt>
<wgt id='1597'> +1.3307059e+00 </wgt>
<wgt id='1598'> +1.3260426e+00 </wgt>
<wgt id='1599'> +1.3277856e+00 </wgt>
<wgt id='1600'> +1.3319963e+00 </wgt>
<wgt id='1601'> +1.3239863e+00 </wgt>
<wgt id='1602'> +1.3297957e+00 </wgt>
<wgt id='1603'> +1.3283018e+00 </wgt>
<wgt id='1604'> +1.3269951e+00 </wgt>
<wgt id='1605'> +1.3252949e+00 </wgt>
<wgt id='1606'> +1.3281188e+00 </wgt>
<wgt id='1607'> +1.3282435e+00 </wgt>
<wgt id='1608'> +1.3268754e+00 </wgt>
<wgt id='1609'> +1.3292956e+00 </wgt>
<wgt id='1610'> +1.3251722e+00 </wgt>
<wgt id='1611'> +1.3344204e+00 </wgt>
<wgt id='1612'> +1.3498253e+00 </wgt>
<wgt id='1613'> +1.3491847e+00 </wgt>
<wgt id='1614'> +1.3508397e+00 </wgt>
<wgt id='1615'> +1.3511108e+00 </wgt>
<wgt id='1616'> +1.3498937e+00 </wgt>
<wgt id='1617'> +1.3490282e+00 </wgt>
<wgt id='1618'> +1.3504064e+00 </wgt>
<wgt id='1619'> +1.3453008e+00 </wgt>
<wgt id='1620'> +1.3465537e+00 </wgt>
<wgt id='1621'> +1.3513919e+00 </wgt>
<wgt id='1622'> +1.3520388e+00 </wgt>
<wgt id='1623'> +1.3482618e+00 </wgt>
<wgt id='1624'> +1.3489236e+00 </wgt>
<wgt id='1625'> +1.3508625e+00 </wgt>
<wgt id='1626'> +1.3558927e+00 </wgt>
<wgt id='1627'> +1.3496927e+00 </wgt>
<wgt id='1628'> +1.3508701e+00 </wgt>
<wgt id='1629'> +1.3509693e+00 </wgt>
<wgt id='1630'> +1.3514826e+00 </wgt>
<wgt id='1631'> +1.3509415e+00 </wgt>
<wgt id='1632'> +1.3547026e+00 </wgt>
<wgt id='1633'> +1.3486054e+00 </wgt>
<wgt id='1634'> +1.3553394e+00 </wgt>
<wgt id='1635'> +1.3481352e+00 </wgt>
<wgt id='1636'> +1.3493243e+00 </wgt>
<wgt id='1637'> +1.3548940e+00 </wgt>
<wgt id='1638'> +1.3494220e+00 </wgt>
<wgt id='1639'> +1.3524654e+00 </wgt>
<wgt id='1640'> +1.3501665e+00 </wgt>
<wgt id='1641'> +1.3378351e+00 </wgt>
<wgt id='1642'> +1.3477403e+00 </wgt>
<wgt id='1643'> +1.3503440e+00 </wgt>
<wgt id='1644'> +1.3460372e+00 </wgt>
<wgt id='1645'> +1.3479332e+00 </wgt>
<wgt id='1646'> +1.3518696e+00 </wgt>
<wgt id='1647'> +1.3478080e+00 </wgt>
<wgt id='1648'> +1.3491836e+00 </wgt>
<wgt id='1649'> +1.3512252e+00 </wgt>
<wgt id='1650'> +1.3488046e+00 </wgt>
<wgt id='1651'> +1.3505269e+00 </wgt>
<wgt id='1652'> +1.3492847e+00 </wgt>
<wgt id='1653'> +1.3500319e+00 </wgt>
<wgt id='1654'> +1.3484189e+00 </wgt>
<wgt id='1655'> +1.3523927e+00 </wgt>
<wgt id='1656'> +1.3506772e+00 </wgt>
<wgt id='1657'> +1.3489026e+00 </wgt>
<wgt id='1658'> +1.3520131e+00 </wgt>
<wgt id='1659'> +1.3537810e+00 </wgt>
<wgt id='1660'> +1.3495480e+00 </wgt>
<wgt id='1661'> +1.3498837e+00 </wgt>
<wgt id='1662'> +1.3486107e+00 </wgt>
<wgt id='1663'> +1.3505441e+00 </wgt>
<wgt id='1664'> +1.3497115e+00 </wgt>
<wgt id='1665'> +1.3494334e+00 </wgt>
<wgt id='1666'> +1.3499152e+00 </wgt>
<wgt id='1667'> +1.3486884e+00 </wgt>
<wgt id='1668'> +1.3498218e+00 </wgt>
<wgt id='1669'> +1.3497932e+00 </wgt>
<wgt id='1670'> +1.3490987e+00 </wgt>
<wgt id='1671'> +1.3497908e+00 </wgt>
<wgt id='1672'> +1.3531971e+00 </wgt>
<wgt id='1673'> +1.3501881e+00 </wgt>
<wgt id='1674'> +1.3502643e+00 </wgt>
<wgt id='1675'> +1.3499267e+00 </wgt>
<wgt id='1676'> +1.3489788e+00 </wgt>
<wgt id='1677'> +1.3504441e+00 </wgt>
<wgt id='1678'> +1.3492740e+00 </wgt>
<wgt id='1679'> +1.3505002e+00 </wgt>
<wgt id='1680'> +1.3517857e+00 </wgt>
<wgt id='1681'> +1.3504982e+00 </wgt>
<wgt id='1682'> +1.3491256e+00 </wgt>
<wgt id='1683'> +1.3494054e+00 </wgt>
<wgt id='1684'> +1.3501540e+00 </wgt>
<wgt id='1685'> +1.3504342e+00 </wgt>
<wgt id='1686'> +1.3490391e+00 </wgt>
<wgt id='1687'> +1.3488317e+00 </wgt>
<wgt id='1688'> +1.3497841e+00 </wgt>
<wgt id='1689'> +1.3495879e+00 </wgt>
<wgt id='1690'> +1.3505379e+00 </wgt>
<wgt id='1691'> +1.3486111e+00 </wgt>
<wgt id='1692'> +1.3511309e+00 </wgt>
<wgt id='1693'> +1.3503885e+00 </wgt>
<wgt id='1694'> +1.3502158e+00 </wgt>
<wgt id='1695'> +1.3500523e+00 </wgt>
<wgt id='1696'> +1.3505234e+00 </wgt>
<wgt id='1697'> +1.3494267e+00 </wgt>
<wgt id='1698'> +1.3490451e+00 </wgt>
<wgt id='1699'> +1.3491380e+00 </wgt>
<wgt id='1700'> +1.3490548e+00 </wgt>
<wgt id='1701'> +1.3503750e+00 </wgt>
<wgt id='1702'> +1.3506159e+00 </wgt>
<wgt id='1703'> +1.3487080e+00 </wgt>
<wgt id='1704'> +1.3501706e+00 </wgt>
<wgt id='1705'> +1.3493525e+00 </wgt>
<wgt id='1706'> +1.3505705e+00 </wgt>
<wgt id='1707'> +1.3498270e+00 </wgt>
<wgt id='1708'> +1.3504667e+00 </wgt>
<wgt id='1709'> +1.3501573e+00 </wgt>
<wgt id='1710'> +1.3500294e+00 </wgt>
<wgt id='1711'> +1.3503226e+00 </wgt>
<wgt id='1712'> +1.3499830e+00 </wgt>
<wgt id='1713'> +1.3236900e+00 </wgt>
<wgt id='1714'> +1.3711593e+00 </wgt>
<wgt id='1715'> +1.3689095e+00 </wgt>
<wgt id='1716'> +1.3588493e+00 </wgt>
<wgt id='1717'> +1.3634981e+00 </wgt>
<wgt id='1718'> +1.3511062e+00 </wgt>
<wgt id='1719'> +1.3484986e+00 </wgt>
<wgt id='1720'> +1.3910171e+00 </wgt>
<wgt id='1721'> +1.3350279e+00 </wgt>
<wgt id='1722'> +1.3770052e+00 </wgt>
<wgt id='1723'> +1.3928451e+00 </wgt>
<wgt id='1724'> +1.3694512e+00 </wgt>
<wgt id='1725'> +1.3941544e+00 </wgt>
<wgt id='1726'> +1.3905169e+00 </wgt>
<wgt id='1727'> +1.3731998e+00 </wgt>
<wgt id='1728'> +1.3702316e+00 </wgt>
<wgt id='1729'> +1.3735188e+00 </wgt>
<wgt id='1730'> +1.3659689e+00 </wgt>
<wgt id='1731'> +1.2745888e+00 </wgt>
<wgt id='1732'> +1.4143616e+00 </wgt>
<wgt id='1733'> +1.3772498e+00 </wgt>
<wgt id='1734'> +1.3539745e+00 </wgt>
<wgt id='1735'> +1.3183949e+00 </wgt>
<wgt id='1736'> +1.3491094e+00 </wgt>
<wgt id='1737'> +1.3742763e+00 </wgt>
<wgt id='1738'> +1.3772857e+00 </wgt>
<wgt id='1739'> +1.3752073e+00 </wgt>
<wgt id='1740'> +1.3648504e+00 </wgt>
<wgt id='1741'> +1.3516124e+00 </wgt>
<wgt id='1742'> +1.4013840e+00 </wgt>
<wgt id='1743'> +1.3425679e+00 </wgt>
<wgt id='1744'> +1.3727871e+00 </wgt>
<wgt id='1745'> +1.3280472e+00 </wgt>
<wgt id='1746'> +1.3600178e+00 </wgt>
<wgt id='1747'> +1.3628257e+00 </wgt>
<wgt id='1748'> +1.3392172e+00 </wgt>
<wgt id='1749'> +1.4024792e+00 </wgt>
<wgt id='1750'> +1.3718536e+00 </wgt>
<wgt id='1751'> +1.3743250e+00 </wgt>
<wgt id='1752'> +1.3413667e+00 </wgt>
<wgt id='1753'> +1.3492254e+00 </wgt>
<wgt id='1754'> +1.3752820e+00 </wgt>
<wgt id='1755'> +1.3761936e+00 </wgt>
<wgt id='1756'> +1.3551666e+00 </wgt>
<wgt id='1757'> +1.3483095e+00 </wgt>
<wgt id='1758'> +1.3617644e+00 </wgt>
<wgt id='1759'> +1.3568794e+00 </wgt>
<wgt id='1760'> +1.3461800e+00 </wgt>
<wgt id='1761'> +1.3781348e+00 </wgt>
<wgt id='1762'> +1.3731998e+00 </wgt>
<wgt id='1763'> +1.3775819e+00 </wgt>
<wgt id='1764'> +1.3933311e+00 </wgt>
<wgt id='1765'> +1.3901734e+00 </wgt>
<wgt id='1766'> +1.4005747e+00 </wgt>
<wgt id='1767'> +1.3411876e+00 </wgt>
<wgt id='1768'> +1.3416207e+00 </wgt>
<wgt id='1769'> +1.3835973e+00 </wgt>
<wgt id='1770'> +1.4055209e+00 </wgt>
<wgt id='1771'> +1.3732838e+00 </wgt>
<wgt id='1772'> +1.3522100e+00 </wgt>
<wgt id='1773'> +1.3706710e+00 </wgt>
<wgt id='1774'> +1.3314087e+00 </wgt>
<wgt id='1775'> +1.3703694e+00 </wgt>
<wgt id='1776'> +1.3733916e+00 </wgt>
<wgt id='1777'> +1.3911312e+00 </wgt>
<wgt id='1778'> +1.3416206e+00 </wgt>
<wgt id='1779'> +1.3520403e+00 </wgt>
<wgt id='1780'> +1.4007816e+00 </wgt>
<wgt id='1781'> +1.3745489e+00 </wgt>
<wgt id='1782'> +1.4004688e+00 </wgt>
<wgt id='1783'> +1.3416684e+00 </wgt>
<wgt id='1784'> +1.3915047e+00 </wgt>
<wgt id='1785'> +1.3785004e+00 </wgt>
<wgt id='1786'> +1.3940167e+00 </wgt>
<wgt id='1787'> +1.3894572e+00 </wgt>
<wgt id='1788'> +1.3506219e+00 </wgt>
<wgt id='1789'> +1.3767690e+00 </wgt>
<wgt id='1790'> +1.3999820e+00 </wgt>
<wgt id='1791'> +1.3175514e+00 </wgt>
<wgt id='1792'> +1.3980063e+00 </wgt>
<wgt id='1793'> +1.3925990e+00 </wgt>
<wgt id='1794'> +1.3627147e+00 </wgt>
<wgt id='1795'> +1.3728647e+00 </wgt>
<wgt id='1796'> +1.3864046e+00 </wgt>
<wgt id='1797'> +1.3629086e+00 </wgt>
<wgt id='1798'> +1.3943843e+00 </wgt>
<wgt id='1799'> +1.3710742e+00 </wgt>
<wgt id='1800'> +1.3763922e+00 </wgt>
<wgt id='1801'> +1.3568782e+00 </wgt>
<wgt id='1802'> +1.3807822e+00 </wgt>
<wgt id='1803'> +1.3746197e+00 </wgt>
<wgt id='1804'> +1.3919101e+00 </wgt>
<wgt id='1805'> +1.3601794e+00 </wgt>
<wgt id='1806'> +1.3715166e+00 </wgt>
<wgt id='1807'> +1.3395838e+00 </wgt>
<wgt id='1808'> +1.3550648e+00 </wgt>
<wgt id='1809'> +1.3589316e+00 </wgt>
<wgt id='1810'> +1.3595628e+00 </wgt>
<wgt id='1811'> +1.3816024e+00 </wgt>
<wgt id='1812'> +1.3602377e+00 </wgt>
<wgt id='1813'> +1.3868829e+00 </wgt>
<wgt id='1814'> +1.3842671e+00 </wgt>
<wgt id='1815'> +1.4008053e+00 </wgt>
<wgt id='1816'> +1.3487498e+00 </wgt>
<wgt id='1817'> +1.3714820e+00 </wgt>
<wgt id='1818'> +1.3338069e+00 </wgt>
<wgt id='1819'> +1.3640332e+00 </wgt>
<wgt id='1820'> +1.3592683e+00 </wgt>
<wgt id='1821'> +1.3893121e+00 </wgt>
<wgt id='1822'> +1.3781966e+00 </wgt>
<wgt id='1823'> +1.3406228e+00 </wgt>
<wgt id='1824'> +1.3405977e+00 </wgt>
<wgt id='1825'> +1.3491897e+00 </wgt>
<wgt id='1826'> +1.3199116e+00 </wgt>
<wgt id='1827'> +1.3026909e+00 </wgt>
<wgt id='1828'> +1.3797968e+00 </wgt>
<wgt id='1829'> +1.3793891e+00 </wgt>
<wgt id='1830'> +1.3156498e+00 </wgt>
<wgt id='1831'> +1.3581050e+00 </wgt>
<wgt id='1832'> +1.3383251e+00 </wgt>
<wgt id='1833'> +1.3300703e+00 </wgt>
<wgt id='1834'> +1.3319549e+00 </wgt>
<wgt id='1835'> +1.3614135e+00 </wgt>
<wgt id='1836'> +1.3499698e+00 </wgt>
<wgt id='1837'> +1.3725993e+00 </wgt>
<wgt id='1838'> +1.3203188e+00 </wgt>
<wgt id='1839'> +1.4218906e+00 </wgt>
<wgt id='1840'> +1.3428085e+00 </wgt>
<wgt id='1841'> +1.3497397e+00 </wgt>
<wgt id='1842'> +1.3602405e+00 </wgt>
<wgt id='1843'> +1.3175887e+00 </wgt>
<wgt id='1844'> +1.3332367e+00 </wgt>
<wgt id='1845'> +1.3436203e+00 </wgt>
<wgt id='1846'> +1.3688177e+00 </wgt>
<wgt id='1847'> +1.3385288e+00 </wgt>
<wgt id='1848'> +1.3273846e+00 </wgt>
<wgt id='1849'> +1.3320468e+00 </wgt>
<wgt id='1850'> +1.3624642e+00 </wgt>
<wgt id='1851'> +1.3431989e+00 </wgt>
<wgt id='1852'> +1.3665605e+00 </wgt>
<wgt id='1853'> +1.3358664e+00 </wgt>
<wgt id='1854'> +1.3676545e+00 </wgt>
<wgt id='1855'> +1.3450968e+00 </wgt>
<wgt id='1856'> +1.3405595e+00 </wgt>
<wgt id='1857'> +1.3787936e+00 </wgt>
<wgt id='1858'> +1.3602562e+00 </wgt>
<wgt id='1859'> +1.3525357e+00 </wgt>
<wgt id='1860'> +1.3410144e+00 </wgt>
<wgt id='1861'> +1.3269845e+00 </wgt>
<wgt id='1862'> +1.3828059e+00 </wgt>
<wgt id='1863'> +1.3413006e+00 </wgt>
<wgt id='1864'> +1.3448391e+00 </wgt>
<wgt id='1865'> +1.3376274e+00 </wgt>
<wgt id='1866'> +1.3489189e+00 </wgt>
<wgt id='1867'> +1.3580353e+00 </wgt>
<wgt id='1868'> +1.3475481e+00 </wgt>
<wgt id='1869'> +1.3696506e+00 </wgt>
<wgt id='1870'> +1.3557293e+00 </wgt>
<wgt id='1871'> +1.3466203e+00 </wgt>
<wgt id='1872'> +1.3257279e+00 </wgt>
<wgt id='1873'> +1.3788425e+00 </wgt>
<wgt id='1874'> +1.3483316e+00 </wgt>
<wgt id='1875'> +1.3385390e+00 </wgt>
<wgt id='1876'> +1.3552847e+00 </wgt>
<wgt id='1877'> +1.3550781e+00 </wgt>
<wgt id='1878'> +1.3470589e+00 </wgt>
<wgt id='1879'> +1.3712291e+00 </wgt>
<wgt id='1880'> +1.2862756e+00 </wgt>
<wgt id='1881'> +1.3488818e+00 </wgt>
<wgt id='1882'> +1.3274388e+00 </wgt>
<wgt id='1883'> +1.4097213e+00 </wgt>
<wgt id='1884'> +1.3409744e+00 </wgt>
<wgt id='1885'> +1.3231315e+00 </wgt>
<wgt id='1886'> +1.3128038e+00 </wgt>
<wgt id='1887'> +1.3616451e+00 </wgt>
<wgt id='1888'> +1.3709528e+00 </wgt>
<wgt id='1889'> +1.3329339e+00 </wgt>
<wgt id='1890'> +1.3759861e+00 </wgt>
<wgt id='1891'> +1.3482839e+00 </wgt>
<wgt id='1892'> +1.3532733e+00 </wgt>
<wgt id='1893'> +1.3383166e+00 </wgt>
<wgt id='1894'> +1.3718111e+00 </wgt>
<wgt id='1895'> +1.3531891e+00 </wgt>
<wgt id='1896'> +1.3364213e+00 </wgt>
<wgt id='1897'> +1.3432244e+00 </wgt>
<wgt id='1898'> +1.3466494e+00 </wgt>
<wgt id='1899'> +1.3492824e+00 </wgt>
<wgt id='1900'> +1.3388988e+00 </wgt>
<wgt id='1901'> +1.3306970e+00 </wgt>
<wgt id='1902'> +1.3240849e+00 </wgt>
<wgt id='1903'> +1.3468228e+00 </wgt>
<wgt id='1904'> +1.3619501e+00 </wgt>
<wgt id='1905'> +1.3642398e+00 </wgt>
<wgt id='1906'> +1.3289113e+00 </wgt>
<wgt id='1907'> +1.3469401e+00 </wgt>
<wgt id='1908'> +1.3419792e+00 </wgt>
<wgt id='1909'> +1.3363952e+00 </wgt>
<wgt id='1910'> +1.3530153e+00 </wgt>
<wgt id='1911'> +1.3024680e+00 </wgt>
<wgt id='1912'> +1.3521461e+00 </wgt>
<wgt id='1913'> +1.3398302e+00 </wgt>
<wgt id='1914'> +1.3780145e+00 </wgt>
<wgt id='1915'> +1.3645209e+00 </wgt>
<wgt id='1916'> +1.3313291e+00 </wgt>
<wgt id='1917'> +1.2880845e+00 </wgt>
<wgt id='1918'> +1.3695227e+00 </wgt>
<wgt id='1919'> +1.3487498e+00 </wgt>
<wgt id='1920'> +1.3714820e+00 </wgt>
<wgt id='1921'> +1.3338069e+00 </wgt>
<wgt id='1922'> +1.3640332e+00 </wgt>
<wgt id='1923'> +1.3592683e+00 </wgt>
<wgt id='1924'> +1.3893121e+00 </wgt>
<wgt id='1925'> +1.3781966e+00 </wgt>
<wgt id='1926'> +1.3406228e+00 </wgt>
<wgt id='1927'> +1.3405977e+00 </wgt>
<wgt id='1928'> +1.3491897e+00 </wgt>
<wgt id='1929'> +1.3199116e+00 </wgt>
<wgt id='1930'> +1.3026909e+00 </wgt>
<wgt id='1931'> +1.3797968e+00 </wgt>
<wgt id='1932'> +1.3793891e+00 </wgt>
<wgt id='1933'> +1.3156498e+00 </wgt>
<wgt id='1934'> +1.3581050e+00 </wgt>
<wgt id='1935'> +1.3383251e+00 </wgt>
<wgt id='1936'> +1.3300703e+00 </wgt>
<wgt id='1937'> +1.3319549e+00 </wgt>
<wgt id='1938'> +1.3614135e+00 </wgt>
<wgt id='1939'> +1.3499698e+00 </wgt>
<wgt id='1940'> +1.3725993e+00 </wgt>
<wgt id='1941'> +1.3203188e+00 </wgt>
<wgt id='1942'> +1.4218906e+00 </wgt>
<wgt id='1943'> +1.3428085e+00 </wgt>
<wgt id='1944'> +1.3497397e+00 </wgt>
<wgt id='1945'> +1.3602405e+00 </wgt>
<wgt id='1946'> +1.3175887e+00 </wgt>
<wgt id='1947'> +1.3332367e+00 </wgt>
<wgt id='1948'> +1.3436203e+00 </wgt>
<wgt id='1949'> +1.3688177e+00 </wgt>
<wgt id='1950'> +1.3385288e+00 </wgt>
<wgt id='1951'> +1.3273846e+00 </wgt>
<wgt id='1952'> +1.3320468e+00 </wgt>
<wgt id='1953'> +1.3624642e+00 </wgt>
<wgt id='1954'> +1.3431989e+00 </wgt>
<wgt id='1955'> +1.3665605e+00 </wgt>
<wgt id='1956'> +1.3358664e+00 </wgt>
<wgt id='1957'> +1.3676545e+00 </wgt>
<wgt id='1958'> +1.3450968e+00 </wgt>
<wgt id='1959'> +1.3405595e+00 </wgt>
<wgt id='1960'> +1.3787936e+00 </wgt>
<wgt id='1961'> +1.3602562e+00 </wgt>
<wgt id='1962'> +1.3525357e+00 </wgt>
<wgt id='1963'> +1.3410144e+00 </wgt>
<wgt id='1964'> +1.3269845e+00 </wgt>
<wgt id='1965'> +1.3828059e+00 </wgt>
<wgt id='1966'> +1.3413006e+00 </wgt>
<wgt id='1967'> +1.3448391e+00 </wgt>
<wgt id='1968'> +1.3376274e+00 </wgt>
<wgt id='1969'> +1.3489189e+00 </wgt>
<wgt id='1970'> +1.3580353e+00 </wgt>
<wgt id='1971'> +1.3475481e+00 </wgt>
<wgt id='1972'> +1.3696506e+00 </wgt>
<wgt id='1973'> +1.3557293e+00 </wgt>
<wgt id='1974'> +1.3466203e+00 </wgt>
<wgt id='1975'> +1.3257279e+00 </wgt>
<wgt id='1976'> +1.3788425e+00 </wgt>
<wgt id='1977'> +1.3483316e+00 </wgt>
<wgt id='1978'> +1.3385390e+00 </wgt>
<wgt id='1979'> +1.3552847e+00 </wgt>
<wgt id='1980'> +1.3550781e+00 </wgt>
<wgt id='1981'> +1.3470589e+00 </wgt>
<wgt id='1982'> +1.3712291e+00 </wgt>
<wgt id='1983'> +1.2862756e+00 </wgt>
<wgt id='1984'> +1.3488818e+00 </wgt>
<wgt id='1985'> +1.3274388e+00 </wgt>
<wgt id='1986'> +1.4097213e+00 </wgt>
<wgt id='1987'> +1.3409744e+00 </wgt>
<wgt id='1988'> +1.3231315e+00 </wgt>
<wgt id='1989'> +1.3128038e+00 </wgt>
<wgt id='1990'> +1.3616451e+00 </wgt>
<wgt id='1991'> +1.3709528e+00 </wgt>
<wgt id='1992'> +1.3329339e+00 </wgt>
<wgt id='1993'> +1.3759861e+00 </wgt>
<wgt id='1994'> +1.3482839e+00 </wgt>
<wgt id='1995'> +1.3532733e+00 </wgt>
<wgt id='1996'> +1.3383166e+00 </wgt>
<wgt id='1997'> +1.3718111e+00 </wgt>
<wgt id='1998'> +1.3531891e+00 </wgt>
<wgt id='1999'> +1.3364213e+00 </wgt>
<wgt id='2000'> +1.3432244e+00 </wgt>
<wgt id='2001'> +1.3466494e+00 </wgt>
<wgt id='2002'> +1.3492824e+00 </wgt>
<wgt id='2003'> +1.3388988e+00 </wgt>
<wgt id='2004'> +1.3306970e+00 </wgt>
<wgt id='2005'> +1.3240849e+00 </wgt>
<wgt id='2006'> +1.3468228e+00 </wgt>
<wgt id='2007'> +1.3619501e+00 </wgt>
<wgt id='2008'> +1.3642398e+00 </wgt>
<wgt id='2009'> +1.3289113e+00 </wgt>
<wgt id='2010'> +1.3469401e+00 </wgt>
<wgt id='2011'> +1.3419792e+00 </wgt>
<wgt id='2012'> +1.3363952e+00 </wgt>
<wgt id='2013'> +1.3530153e+00 </wgt>
<wgt id='2014'> +1.3024680e+00 </wgt>
<wgt id='2015'> +1.3521461e+00 </wgt>
<wgt id='2016'> +1.3398302e+00 </wgt>
<wgt id='2017'> +1.3780145e+00 </wgt>
<wgt id='2018'> +1.3645209e+00 </wgt>
<wgt id='2019'> +1.3313291e+00 </wgt>
<wgt id='2020'> +1.3427257e+00 </wgt>
<wgt id='2021'> +1.3565956e+00 </wgt>
<wgt id='2022'> +1.3453472e+00 </wgt>
</rwgt>
</event>
<event>
13      2 +1.3581722e+00 9.55089200e+01 7.81860800e-03 1.33820100e-01
        1 -1    0    0  501    0 +0.0000000000e+00 +0.0000000000e+00 +2.0441348762e+03 2.0441348762e+03 5.0400000000e-03 0.0000e+00 -1.0000e+00
       21 -1    0    0  502  503 +0.0000000000e+00 +0.0000000000e+00 -2.6993417017e+02 2.6993417017e+02 0.0000000000e+00 0.0000e+00 -1.0000e+00
 -8000001  2    1    2    0  503 -6.8226510037e+00 -6.1913208247e+00 +1.2275497253e+03 1.3663686182e+03 5.9999999299e+02 0.0000e+00 0.0000e+00
        2  1    1    2  501    0 +8.7294494494e+00 -8.1481092275e+00 +7.4683983190e+02 7.4693529137e+02 2.5500000000e-03 0.0000e+00 -1.0000e+00
        5  1    1    2  502    0 -1.9067984457e+00 +1.4339430052e+01 -2.0018885118e+02 2.0076513684e+02 4.6700000000e+00 0.0000e+00 -1.0000e+00
       -6  2    3    3    0  503 -1.0638472666e+02 -7.6494188382e+01 +1.1863714238e+02 2.4704385898e+02 1.7258860271e+02 0.0000e+00 0.0000e+00
       -5  1    6    6    0  503 +3.7064822728e+01 -8.5177134688e+00 +1.3931900055e+01 4.0770813904e+01 4.6700000000e+00 0.0000e+00 1.0000e+00
      -24  2    6    6    0    0 -1.4344954939e+02 -6.7976474913e+01 +1.0470524232e+02 2.0627304507e+02 7.9917501168e+01 0.0000e+00 0.0000e+00
        3  1    8    8  504    0 -3.6832701372e+01 -4.0868245754e+01 +7.3701151110e+01 9.1971361180e+01 1.0100000000e-01 0.0000e+00 -1.0000e+00
       -4  1    8    8    0  504 -1.0661684802e+02 -2.7108229160e+01 +3.1004091211e+01 1.1430168389e+02 1.2700000000e+00 0.0000e+00 1.0000e+00
       23  2    3    3    0    0 +9.9562075656e+01 +7.0302867558e+01 +1.1089125829e+03 1.1193247592e+03 9.1354801953e+01 0.0000e+00 0.0000e+00
       16  1   11   11    0    0 +7.8067266736e+01 +8.6764852794e+01 +7.1321955155e+02 7.2270655631e+02 0.0000000000e+00 0.0000e+00 -1.0000e+00
      -16  1   11   11    0    0 +2.1494808920e+01 -1.6461985237e+01 +3.9569303138e+02 3.9661820287e+02 0.0000000000e+00 0.0000e+00 1.0000e+00
<mgrwt>
<rscale>  1 0.33771319e+02</rscale>
<asrwt>0</asrwt>
<pdfrwt beam="1">  1       21 0.41528335e-01 0.95508917e+02</pdfrwt>
<pdfrwt beam="2">  1        1 0.31448228e+00 0.11941314e+02</pdfrwt>
<totfact> 0.34471297e+02</totfact>
</mgrwt>
<rwgt>
<wgt id='1001'> +1.3581722e+00 </wgt>
<wgt id='1002'> +5.5309889e-01 </wgt>
<wgt id='1003'> +5.5278795e-01 </wgt>
<wgt id='1004'> +6.7378838e-01 </wgt>
<wgt id='1005'> +3.8825591e-01 </wgt>
<wgt id='1006'> +1.2005613e+00 </wgt>
<wgt id='1007'> +5.0805903e-01 </wgt>
<wgt id='1008'> +5.0778468e-01 </wgt>
<wgt id='1009'> +6.1380939e-01 </wgt>
<wgt id='1010'> +3.6121401e-01 </wgt>
<wgt id='1011'> +1.5657336e+00 </wgt>
<wgt id='1012'> +6.0716207e-01 </wgt>
<wgt id='1013'> +6.0680416e-01 </wgt>
<wgt id='1014'> +7.4718856e-01 </wgt>
<wgt id='1015'> +4.1978024e-01 </wgt>
<wgt id='1016'> +1.1734633e+00 </wgt>
<wgt id='1017'> +5.0106672e-01 </wgt>
<wgt id='1018'> +5.0079398e-01 </wgt>
<wgt id='1019'> +6.0680416e-01 </wgt>
<wgt id='1020'> +3.5536108e-01 </wgt>
<wgt id='1021'> +1.0372872e+00 </wgt>
<wgt id='1022'> +4.6026394e-01 </wgt>
<wgt id='1023'> +4.6002362e-01 </wgt>
<wgt id='1024'> +5.5278795e-01 </wgt>
<wgt id='1025'> +3.3061029e-01 </wgt>
<wgt id='1026'> +1.3527967e+00 </wgt>
<wgt id='1027'> +5.5004397e-01 </wgt>
<wgt id='1028'> +5.4972956e-01 </wgt>
<wgt id='1029'> +6.7290731e-01 </wgt>
<wgt id='1030'> +3.8421452e-01 </wgt>
<wgt id='1031'> +1.6012423e+00 </wgt>
<wgt id='1032'> +6.1416588e-01 </wgt>
<wgt id='1033'> +6.1380939e-01 </wgt>
<wgt id='1034'> +7.5299588e-01 </wgt>
<wgt id='1035'> +4.2631429e-01 </wgt>
<wgt id='1036'> +1.4154240e+00 </wgt>
<wgt id='1037'> +5.6415323e-01 </wgt>
<wgt id='1038'> +5.6383829e-01 </wgt>
<wgt id='1039'> +6.8596603e-01 </wgt>
<wgt id='1040'> +3.9662164e-01 </wgt>
<wgt id='1041'> +1.8459506e+00 </wgt>
<wgt id='1042'> +6.7419811e-01 </wgt>
<wgt id='1043'> +6.7378838e-01 </wgt>
<wgt id='1044'> +8.3502464e-01 </wgt>
<wgt id='1045'> +4.6092876e-01 </wgt>
<wgt id='1046'> +1.3581722e+00 </wgt>
<wgt id='1047'> +1.3581722e+00 </wgt>
<wgt id='1048'> +1.3581722e+00 </wgt>
<wgt id='1049'> +1.3592631e+00 </wgt>
<wgt id='1050'> +1.3486808e+00 </wgt>
<wgt id='1051'> +1.3681395e+00 </wgt>
<wgt id='1052'> +1.3501343e+00 </wgt>
<wgt id='1053'> +1.3723549e+00 </wgt>
<wgt id='1054'> +1.3514162e+00 </wgt>
<wgt id='1055'> +1.3507449e+00 </wgt>
<wgt id='1056'> +1.3621678e+00 </wgt>
<wgt id='1057'> +1.3577656e+00 </wgt>
<wgt id='1058'> +1.3689895e+00 </wgt>
<wgt id='1059'> +1.3541234e+00 </wgt>
<wgt id='1060'> +1.3638165e+00 </wgt>
<wgt id='1061'> +1.3618175e+00 </wgt>
<wgt id='1062'> +1.3552750e+00 </wgt>
<wgt id='1063'> +1.3593322e+00 </wgt>
<wgt id='1064'> +1.3607870e+00 </wgt>
<wgt id='1065'> +1.3552216e+00 </wgt>
<wgt id='1066'> +1.3597203e+00 </wgt>
<wgt id='1067'> +1.3614116e+00 </wgt>
<wgt id='1068'> +1.3590325e+00 </wgt>
<wgt id='1069'> +1.3578803e+00 </wgt>
<wgt id='1070'> +1.3593794e+00 </wgt>
<wgt id='1071'> +1.3510698e+00 </wgt>
<wgt id='1072'> +1.3662286e+00 </wgt>
<wgt id='1073'> +1.3472420e+00 </wgt>
<wgt id='1074'> +1.3603164e+00 </wgt>
<wgt id='1075'> +1.3606520e+00 </wgt>
<wgt id='1076'> +1.3749116e+00 </wgt>
<wgt id='1077'> +1.3640353e+00 </wgt>
<wgt id='1078'> +1.3505199e+00 </wgt>
<wgt id='1079'> +1.3633886e+00 </wgt>
<wgt id='1080'> +1.3611799e+00 </wgt>
<wgt id='1081'> +1.3575204e+00 </wgt>
<wgt id='1082'> +1.3597779e+00 </wgt>
<wgt id='1083'> +1.3632977e+00 </wgt>
<wgt id='1084'> +1.3451028e+00 </wgt>
<wgt id='1085'> +1.3557227e+00 </wgt>
<wgt id='1086'> +1.3502796e+00 </wgt>
<wgt id='1087'> +1.3622600e+00 </wgt>
<wgt id='1088'> +1.3625121e+00 </wgt>
<wgt id='1089'> +1.3611933e+00 </wgt>
<wgt id='1090'> +1.3458254e+00 </wgt>
<wgt id='1091'> +1.3563153e+00 </wgt>
<wgt id='1092'> +1.3524731e+00 </wgt>
<wgt id='1093'> +1.3525608e+00 </wgt>
<wgt id='1094'> +1.3598627e+00 </wgt>
<wgt id='1095'> +1.3603882e+00 </wgt>
<wgt id='1096'> +1.3572372e+00 </wgt>
<wgt id='1097'> +1.3730763e+00 </wgt>
<wgt id='1098'> +1.3594785e+00 </wgt>
<wgt id='1099'> +1.3536360e+00 </wgt>
<wgt id='1100'> +1.3580193e+00 </wgt>
<wgt id='1101'> +1.3597586e+00 </wgt>
<wgt id='1102'> +1.3585571e+00 </wgt>
<wgt id='1103'> +1.3525317e+00 </wgt>
<wgt id='1104'> +1.3571111e+00 </wgt>
<wgt id='1105'> +1.3525387e+00 </wgt>
<wgt id='1106'> +1.3641981e+00 </wgt>
<wgt id='1107'> +1.3606803e+00 </wgt>
<wgt id='1108'> +1.3541615e+00 </wgt>
<wgt id='1109'> +1.3601812e+00 </wgt>
<wgt id='1110'> +1.3589327e+00 </wgt>
<wgt id='1111'> +1.3536108e+00 </wgt>
<wgt id='1112'> +1.3573243e+00 </wgt>
<wgt id='1113'> +1.3592099e+00 </wgt>
<wgt id='1114'> +1.3606481e+00 </wgt>
<wgt id='1115'> +1.3588615e+00 </wgt>
<wgt id='1116'> +1.3591384e+00 </wgt>
<wgt id='1117'> +1.3549248e+00 </wgt>
<wgt id='1118'> +1.3546322e+00 </wgt>
<wgt id='1119'> +1.3569784e+00 </wgt>
<wgt id='1120'> +1.3578321e+00 </wgt>
<wgt id='1121'> +1.3637748e+00 </wgt>
<wgt id='1122'> +1.3641609e+00 </wgt>
<wgt id='1123'> +1.3559555e+00 </wgt>
<wgt id='1124'> +1.3583461e+00 </wgt>
<wgt id='1125'> +1.3586651e+00 </wgt>
<wgt id='1126'> +1.3607259e+00 </wgt>
<wgt id='1127'> +1.3601817e+00 </wgt>
<wgt id='1128'> +1.3569873e+00 </wgt>
<wgt id='1129'> +1.3606092e+00 </wgt>
<wgt id='1130'> +1.3588076e+00 </wgt>
<wgt id='1131'> +1.3605378e+00 </wgt>
<wgt id='1132'> +1.3573409e+00 </wgt>
<wgt id='1133'> +1.3564914e+00 </wgt>
<wgt id='1134'> +1.3575925e+00 </wgt>
<wgt id='1135'> +1.3579948e+00 </wgt>
<wgt id='1136'> +1.3602667e+00 </wgt>
<wgt id='1137'> +1.3556376e+00 </wgt>
<wgt id='1138'> +1.3605656e+00 </wgt>
<wgt id='1139'> +1.3579618e+00 </wgt>
<wgt id='1140'> +1.3568553e+00 </wgt>
<wgt id='1141'> +1.3589994e+00 </wgt>
<wgt id='1142'> +1.3595606e+00 </wgt>
<wgt id='1143'> +1.3568800e+00 </wgt>
<wgt id='1144'> +1.3592864e+00 </wgt>
<wgt id='1145'> +1.3608318e+00 </wgt>
<wgt id='1146'> +1.3587864e+00 </wgt>
<wgt id='1147'> +1.3602055e+00 </wgt>
<wgt id='1148'> +1.3581722e+00 </wgt>
<wgt id='1149'> +1.3205137e+00 </wgt>
<wgt id='1150'> +1.3666177e+00 </wgt>
<wgt id='1151'> +1.3310670e+00 </wgt>
<wgt id='1152'> +1.3081784e+00 </wgt>
<wgt id='1153'> +1.3823362e+00 </wgt>
<wgt id='1154'> +1.3702001e+00 </wgt>
<wgt id='1155'> +1.3291712e+00 </wgt>
<wgt id='1156'> +1.3247556e+00 </wgt>
<wgt id='1157'> +1.3112827e+00 </wgt>
<wgt id='1158'> +1.3550276e+00 </wgt>
<wgt id='1159'> +1.2675157e+00 </wgt>
<wgt id='1160'> +1.2870841e+00 </wgt>
<wgt id='1161'> +1.4202266e+00 </wgt>
<wgt id='1162'> +1.2546353e+00 </wgt>
<wgt id='1163'> +1.3371760e+00 </wgt>
<wgt id='1164'> +1.3034702e+00 </wgt>
<wgt id='1165'> +1.3619779e+00 </wgt>
<wgt id='1166'> +1.3139737e+00 </wgt>
<wgt id='1167'> +1.3538451e+00 </wgt>
<wgt id='1168'> +1.3587264e+00 </wgt>
<wgt id='1169'> +1.3164654e+00 </wgt>
<wgt id='1170'> +1.3478800e+00 </wgt>
<wgt id='1171'> +1.2984441e+00 </wgt>
<wgt id='1172'> +1.3934749e+00 </wgt>
<wgt id='1173'> +1.3463032e+00 </wgt>
<wgt id='1174'> +1.4397122e+00 </wgt>
<wgt id='1175'> +1.3537857e+00 </wgt>
<wgt id='1176'> +1.2685808e+00 </wgt>
<wgt id='1177'> +1.3428302e+00 </wgt>
<wgt id='1178'> +1.3411804e+00 </wgt>
<wgt id='1179'> +1.2141588e+00 </wgt>
<wgt id='1180'> +1.2261603e+00 </wgt>
<wgt id='1181'> +1.3195434e+00 </wgt>
<wgt id='1182'> +1.3359798e+00 </wgt>
<wgt id='1183'> +1.2904802e+00 </wgt>
<wgt id='1184'> +1.2411461e+00 </wgt>
<wgt id='1185'> +1.2848988e+00 </wgt>
<wgt id='1186'> +1.3310837e+00 </wgt>
<wgt id='1187'> +1.2532766e+00 </wgt>
<wgt id='1188'> +1.2093432e+00 </wgt>
<wgt id='1189'> +1.2594279e+00 </wgt>
<wgt id='1190'> +1.3496894e+00 </wgt>
<wgt id='1191'> +1.3702501e+00 </wgt>
<wgt id='1192'> +1.3328946e+00 </wgt>
<wgt id='1193'> +1.3091891e+00 </wgt>
<wgt id='1194'> +1.3334654e+00 </wgt>
<wgt id='1195'> +1.3026129e+00 </wgt>
<wgt id='1196'> +1.3117329e+00 </wgt>
<wgt id='1197'> +1.3226035e+00 </wgt>
<wgt id='1198'> +1.3234983e+00 </wgt>
<wgt id='1199'> +1.3366101e+00 </wgt>
<wgt id='1200'> +1.3562361e+00 </wgt>
<wgt id='1201'> +1.4045996e+00 </wgt>
<wgt id='1202'> +1.2794548e+00 </wgt>
<wgt id='1203'> +1.3877062e+00 </wgt>
<wgt id='1204'> +1.2244945e+00 </wgt>
<wgt id='1205'> +1.3427772e+00 </wgt>
<wgt id='1206'> +1.3553919e+00 </wgt>
<wgt id='1207'> +1.2790555e+00 </wgt>
<wgt id='1208'> +1.3424941e+00 </wgt>
<wgt id='1209'> +1.4010079e+00 </wgt>
<wgt id='1210'> +1.2824239e+00 </wgt>
<wgt id='1211'> +1.3652954e+00 </wgt>
<wgt id='1212'> +1.2829424e+00 </wgt>
<wgt id='1213'> +1.2860713e+00 </wgt>
<wgt id='1214'> +1.3639884e+00 </wgt>
<wgt id='1215'> +1.3478648e+00 </wgt>
<wgt id='1216'> +1.3746465e+00 </wgt>
<wgt id='1217'> +1.3479061e+00 </wgt>
<wgt id='1218'> +1.3277684e+00 </wgt>
<wgt id='1219'> +1.2524339e+00 </wgt>
<wgt id='1220'> +1.3250442e+00 </wgt>
<wgt id='1221'> +1.3250502e+00 </wgt>
<wgt id='1222'> +1.3604995e+00 </wgt>
<wgt id='1223'> +1.3457980e+00 </wgt>
<wgt id='1224'> +1.2869143e+00 </wgt>
<wgt id='1225'> +1.2894312e+00 </wgt>
<wgt id='1226'> +1.2291843e+00 </wgt>
<wgt id='1227'> +1.3677362e+00 </wgt>
<wgt id='1228'> +1.3680460e+00 </wgt>
<wgt id='1229'> +1.1587847e+00 </wgt>
<wgt id='1230'> +1.3049602e+00 </wgt>
<wgt id='1231'> +1.3619779e+00 </wgt>
<wgt id='1232'> +1.2320154e+00 </wgt>
<wgt id='1233'> +1.3426342e+00 </wgt>
<wgt id='1234'> +1.3284267e+00 </wgt>
<wgt id='1235'> +1.2788832e+00 </wgt>
<wgt id='1236'> +1.3283001e+00 </wgt>
<wgt id='1237'> +1.2267523e+00 </wgt>
<wgt id='1238'> +1.2930654e+00 </wgt>
<wgt id='1239'> +1.2838585e+00 </wgt>
<wgt id='1240'> +1.3041783e+00 </wgt>
<wgt id='1241'> +1.3127274e+00 </wgt>
<wgt id='1242'> +1.3567503e+00 </wgt>
<wgt id='1243'> +1.3752199e+00 </wgt>
<wgt id='1244'> +1.3525934e+00 </wgt>
<wgt id='1245'> +1.2979629e+00 </wgt>
<wgt id='1246'> +1.3545846e+00 </wgt>
<wgt id='1247'> +1.2796047e+00 </wgt>
<wgt id='1248'> +1.3830857e+00 </wgt>
<wgt id='1249'> +1.3386102e+00 </wgt>
<wgt id='1250'> +1.2837400e+00 </wgt>
<wgt id='1251'> +1.2664624e+00 </wgt>
<wgt id='1252'> +1.2814878e+00 </wgt>
<wgt id='1253'> +1.2969328e+00 </wgt>
<wgt id='1254'> +1.1568503e+00 </wgt>
<wgt id='1255'> +1.4212440e+00 </wgt>
<wgt id='1256'> +1.4206789e+00 </wgt>
<wgt id='1257'> +1.4215814e+00 </wgt>
<wgt id='1258'> +1.4241655e+00 </wgt>
<wgt id='1259'> +1.4197167e+00 </wgt>
<wgt id='1260'> +1.4161100e+00 </wgt>
<wgt id='1261'> +1.4281384e+00 </wgt>
<wgt id='1262'> +1.4188629e+00 </wgt>
<wgt id='1263'> +1.4226568e+00 </wgt>
<wgt id='1264'> +1.4527373e+00 </wgt>
<wgt id='1265'> +1.3997477e+00 </wgt>
<wgt id='1266'> +1.4200701e+00 </wgt>
<wgt id='1267'> +1.4224340e+00 </wgt>
<wgt id='1268'> +1.4159331e+00 </wgt>
<wgt id='1269'> +1.4260499e+00 </wgt>
<wgt id='1270'> +1.4231996e+00 </wgt>
<wgt id='1271'> +1.4167568e+00 </wgt>
<wgt id='1272'> +1.4049280e+00 </wgt>
<wgt id='1273'> +1.4336059e+00 </wgt>
<wgt id='1274'> +1.4219352e+00 </wgt>
<wgt id='1275'> +1.4200575e+00 </wgt>
<wgt id='1276'> +1.4032569e+00 </wgt>
<wgt id='1277'> +1.4404692e+00 </wgt>
<wgt id='1278'> +1.4104442e+00 </wgt>
<wgt id='1279'> +1.4288376e+00 </wgt>
<wgt id='1280'> +1.4200468e+00 </wgt>
<wgt id='1281'> +1.4240618e+00 </wgt>
<wgt id='1282'> +1.4413896e+00 </wgt>
<wgt id='1283'> +1.4016436e+00 </wgt>
<wgt id='1284'> +1.4274871e+00 </wgt>
<wgt id='1285'> +1.4150800e+00 </wgt>
<wgt id='1286'> +1.3966620e+00 </wgt>
<wgt id='1287'> +1.4230510e+00 </wgt>
<wgt id='1288'> +1.4225455e+00 </wgt>
<wgt id='1289'> +1.4200690e+00 </wgt>
<wgt id='1290'> +1.4256006e+00 </wgt>
<wgt id='1291'> +1.4196563e+00 </wgt>
<wgt id='1292'> +1.4293032e+00 </wgt>
<wgt id='1293'> +1.4106041e+00 </wgt>
<wgt id='1294'> +1.4082559e+00 </wgt>
<wgt id='1295'> +1.4268427e+00 </wgt>
<wgt id='1296'> +1.3357163e+00 </wgt>
<wgt id='1297'> +1.3388233e+00 </wgt>
<wgt id='1298'> +1.3332873e+00 </wgt>
<wgt id='1299'> +1.3365429e+00 </wgt>
<wgt id='1300'> +1.3347975e+00 </wgt>
<wgt id='1301'> +1.3355885e+00 </wgt>
<wgt id='1302'> +1.3360123e+00 </wgt>
<wgt id='1303'> +1.3362064e+00 </wgt>
<wgt id='1304'> +1.3354655e+00 </wgt>
<wgt id='1305'> +1.3342434e+00 </wgt>
<wgt id='1306'> +1.3378915e+00 </wgt>
<wgt id='1307'> +1.3296758e+00 </wgt>
<wgt id='1308'> +1.3395014e+00 </wgt>
<wgt id='1309'> +1.3164538e+00 </wgt>
<wgt id='1310'> +1.3622196e+00 </wgt>
<wgt id='1311'> +1.3280554e+00 </wgt>
<wgt id='1312'> +1.3384879e+00 </wgt>
<wgt id='1313'> +1.3410078e+00 </wgt>
<wgt id='1314'> +1.3287218e+00 </wgt>
<wgt id='1315'> +1.3501338e+00 </wgt>
<wgt id='1316'> +1.3216407e+00 </wgt>
<wgt id='1317'> +1.3291522e+00 </wgt>
<wgt id='1318'> +1.3479359e+00 </wgt>
<wgt id='1319'> +1.3490408e+00 </wgt>
<wgt id='1320'> +1.3263508e+00 </wgt>
<wgt id='1321'> +1.3310507e+00 </wgt>
<wgt id='1322'> +1.3374324e+00 </wgt>
<wgt id='1323'> +1.3420288e+00 </wgt>
<wgt id='1324'> +1.3230440e+00 </wgt>
<wgt id='1325'> +1.3358852e+00 </wgt>
<wgt id='1326'> +1.3353580e+00 </wgt>
<wgt id='1327'> +1.3338094e+00 </wgt>
<wgt id='1328'> +1.3361707e+00 </wgt>
<wgt id='1329'> +1.3349301e+00 </wgt>
<wgt id='1330'> +1.3357846e+00 </wgt>
<wgt id='1331'> +1.3236720e+00 </wgt>
<wgt id='1332'> +1.3420314e+00 </wgt>
<wgt id='1333'> +1.3461085e+00 </wgt>
<wgt id='1334'> +1.3226343e+00 </wgt>
<wgt id='1335'> +1.3349847e+00 </wgt>
<wgt id='1336'> +1.3357288e+00 </wgt>
<wgt id='1337'> +1.3357163e+00 </wgt>
<wgt id='1338'> +1.3347681e+00 </wgt>
<wgt id='1339'> +1.3351795e+00 </wgt>
<wgt id='1340'> +1.3356960e+00 </wgt>
<wgt id='1341'> +1.3361038e+00 </wgt>
<wgt id='1342'> +1.3364727e+00 </wgt>
<wgt id='1343'> +1.3366952e+00 </wgt>
<wgt id='1344'> +1.3131892e+00 </wgt>
<wgt id='1345'> +1.3165720e+00 </wgt>
<wgt id='1346'> +1.3098565e+00 </wgt>
<wgt id='1347'> +1.3109009e+00 </wgt>
<wgt id='1348'> +1.3147419e+00 </wgt>
<wgt id='1349'> +1.3125667e+00 </wgt>
<wgt id='1350'> +1.3135691e+00 </wgt>
<wgt id='1351'> +1.3127253e+00 </wgt>
<wgt id='1352'> +1.3138825e+00 </wgt>
<wgt id='1353'> +1.3118933e+00 </wgt>
<wgt id='1354'> +1.3139900e+00 </wgt>
<wgt id='1355'> +1.3389831e+00 </wgt>
<wgt id='1356'> +1.2931752e+00 </wgt>
<wgt id='1357'> +1.3208460e+00 </wgt>
<wgt id='1358'> +1.3085855e+00 </wgt>
<wgt id='1359'> +1.3157099e+00 </wgt>
<wgt id='1360'> +1.3069947e+00 </wgt>
<wgt id='1361'> +1.3321447e+00 </wgt>
<wgt id='1362'> +1.2993043e+00 </wgt>
<wgt id='1363'> +1.3018614e+00 </wgt>
<wgt id='1364'> +1.3254456e+00 </wgt>
<wgt id='1365'> +1.3221239e+00 </wgt>
<wgt id='1366'> +1.3087326e+00 </wgt>
<wgt id='1367'> +1.3054956e+00 </wgt>
<wgt id='1368'> +1.3158697e+00 </wgt>
<wgt id='1369'> +1.3050045e+00 </wgt>
<wgt id='1370'> +1.3193046e+00 </wgt>
<wgt id='1371'> +1.3073911e+00 </wgt>
<wgt id='1372'> +1.3118935e+00 </wgt>
<wgt id='1373'> +1.3238203e+00 </wgt>
<wgt id='1374'> +1.3083703e+00 </wgt>
<wgt id='1375'> +1.3131755e+00 </wgt>
<wgt id='1376'> +1.3127714e+00 </wgt>
<wgt id='1377'> +1.3139826e+00 </wgt>
<wgt id='1378'> +1.3115181e+00 </wgt>
<wgt id='1379'> +1.3192593e+00 </wgt>
<wgt id='1380'> +1.3053107e+00 </wgt>
<wgt id='1381'> +1.3060836e+00 </wgt>
<wgt id='1382'> +1.3134977e+00 </wgt>
<wgt id='1383'> +1.3126962e+00 </wgt>
<wgt id='1384'> +1.3105963e+00 </wgt>
<wgt id='1385'> +1.3131892e+00 </wgt>
<wgt id='1386'> +1.3116350e+00 </wgt>
<wgt id='1387'> +1.3120376e+00 </wgt>
<wgt id='1388'> +1.3126615e+00 </wgt>
<wgt id='1389'> +1.3132899e+00 </wgt>
<wgt id='1390'> +1.3135972e+00 </wgt>
<wgt id='1391'> +1.3138920e+00 </wgt>
<wgt id='1392'> +1.4741088e+00 </wgt>
<wgt id='1393'> +1.4744536e+00 </wgt>
<wgt id='1394'> +1.4737973e+00 </wgt>
<wgt id='1395'> +1.4752068e+00 </wgt>
<wgt id='1396'> +1.4734507e+00 </wgt>
<wgt id='1397'> +1.4791845e+00 </wgt>
<wgt id='1398'> +1.4693477e+00 </wgt>
<wgt id='1399'> +1.4711565e+00 </wgt>
<wgt id='1400'> +1.4779499e+00 </wgt>
<wgt id='1401'> +1.4780706e+00 </wgt>
<wgt id='1402'> +1.4693453e+00 </wgt>
<wgt id='1403'> +1.4685877e+00 </wgt>
<wgt id='1404'> +1.4853399e+00 </wgt>
<wgt id='1405'> +1.4810108e+00 </wgt>
<wgt id='1406'> +1.4647229e+00 </wgt>
<wgt id='1407'> +1.4978854e+00 </wgt>
<wgt id='1408'> +1.4578598e+00 </wgt>
<wgt id='1409'> +1.4813265e+00 </wgt>
<wgt id='1410'> +1.4662217e+00 </wgt>
<wgt id='1411'> +1.4667850e+00 </wgt>
<wgt id='1412'> +1.4798649e+00 </wgt>
<wgt id='1413'> +1.4643086e+00 </wgt>
<wgt id='1414'> +1.4842322e+00 </wgt>
<wgt id='1415'> +1.4746663e+00 </wgt>
<wgt id='1416'> +1.4733130e+00 </wgt>
<wgt id='1417'> +1.4744703e+00 </wgt>
<wgt id='1418'> +1.4737460e+00 </wgt>
<wgt id='1419'> +1.4545311e+00 </wgt>
<wgt id='1420'> +1.4660757e+00 </wgt>
<wgt id='1421'> +1.4819826e+00 </wgt>
<wgt id='1422'> +1.4644030e+00 </wgt>
<wgt id='1423'> +1.4877968e+00 </wgt>
<wgt id='1424'> +1.4641464e+00 </wgt>
<wgt id='1425'> +1.4718173e+00 </wgt>
<wgt id='1426'> +1.4775109e+00 </wgt>
<wgt id='1427'> +1.4742995e+00 </wgt>
<wgt id='1428'> +1.4743379e+00 </wgt>
<wgt id='1429'> +1.4739155e+00 </wgt>
<wgt id='1430'> +1.4766314e+00 </wgt>
<wgt id='1431'> +1.4691827e+00 </wgt>
<wgt id='1432'> +1.4780689e+00 </wgt>
<wgt id='1433'> +1.4607241e+00 </wgt>
<wgt id='1434'> +1.4895881e+00 </wgt>
<wgt id='1435'> +1.4716410e+00 </wgt>
<wgt id='1436'> +1.4786358e+00 </wgt>
<wgt id='1437'> +1.4658716e+00 </wgt>
<wgt id='1438'> +1.4956488e+00 </wgt>
<wgt id='1439'> +1.4835180e+00 </wgt>
<wgt id='1440'> +1.4533638e+00 </wgt>
<wgt id='1441'> +1.4827426e+00 </wgt>
<wgt id='1442'> +1.4632938e+00 </wgt>
<wgt id='1443'> +1.4629394e+00 </wgt>
<wgt id='1444'> +1.4632950e+00 </wgt>
<wgt id='1445'> +1.4625518e+00 </wgt>
<wgt id='1446'> +1.4640454e+00 </wgt>
<wgt id='1447'> +1.4622564e+00 </wgt>
<wgt id='1448'> +1.4680737e+00 </wgt>
<wgt id='1449'> +1.4582360e+00 </wgt>
<wgt id='1450'> +1.4594878e+00 </wgt>
<wgt id='1451'> +1.4668218e+00 </wgt>
<wgt id='1452'> +1.4676346e+00 </wgt>
<wgt id='1453'> +1.4584248e+00 </wgt>
<wgt id='1454'> +1.4586740e+00 </wgt>
<wgt id='1455'> +1.4722692e+00 </wgt>
<wgt id='1456'> +1.4728453e+00 </wgt>
<wgt id='1457'> +1.4454063e+00 </wgt>
<wgt id='1458'> +1.4866004e+00 </wgt>
<wgt id='1459'> +1.4496883e+00 </wgt>
<wgt id='1460'> +1.4687910e+00 </wgt>
<wgt id='1461'> +1.4561052e+00 </wgt>
<wgt id='1462'> +1.4540359e+00 </wgt>
<wgt id='1463'> +1.4706994e+00 </wgt>
<wgt id='1464'> +1.4545725e+00 </wgt>
<wgt id='1465'> +1.4735301e+00 </wgt>
<wgt id='1466'> +1.4634603e+00 </wgt>
<wgt id='1467'> +1.4622082e+00 </wgt>
<wgt id='1468'> +1.4617549e+00 </wgt>
<wgt id='1469'> +1.4643851e+00 </wgt>
<wgt id='1470'> +1.4432207e+00 </wgt>
<wgt id='1471'> +1.4587505e+00 </wgt>
<wgt id='1472'> +1.4685934e+00 </wgt>
<wgt id='1473'> +1.4554215e+00 </wgt>
<wgt id='1474'> +1.4720855e+00 </wgt>
<wgt id='1475'> +1.4531349e+00 </wgt>
<wgt id='1476'> +1.4578727e+00 </wgt>
<wgt id='1477'> +1.4683934e+00 </wgt>
<wgt id='1478'> +1.4637352e+00 </wgt>
<wgt id='1479'> +1.4618325e+00 </wgt>
<wgt id='1480'> +1.4589107e+00 </wgt>
<wgt id='1481'> +1.4657560e+00 </wgt>
<wgt id='1482'> +1.4580732e+00 </wgt>
<wgt id='1483'> +1.4674896e+00 </wgt>
<wgt id='1484'> +1.4503813e+00 </wgt>
<wgt id='1485'> +1.4769380e+00 </wgt>
<wgt id='1486'> +1.4653932e+00 </wgt>
<wgt id='1487'> +1.4637281e+00 </wgt>
<wgt id='1488'> +1.4542280e+00 </wgt>
<wgt id='1489'> +1.4846447e+00 </wgt>
<wgt id='1490'> +1.4707446e+00 </wgt>
<wgt id='1491'> +1.4432091e+00 </wgt>
<wgt id='1492'> +1.4738075e+00 </wgt>
<wgt id='1493'> +1.4491932e+00 </wgt>
<wgt id='1494'> +1.4219278e+00 </wgt>
<wgt id='1495'> +1.4059374e+00 </wgt>
<wgt id='1496'> +1.4123629e+00 </wgt>
<wgt id='1497'> +1.4169787e+00 </wgt>
<wgt id='1498'> +1.4249771e+00 </wgt>
<wgt id='1499'> +1.4214003e+00 </wgt>
<wgt id='1500'> +1.4189729e+00 </wgt>
<wgt id='1501'> +1.4198696e+00 </wgt>
<wgt id='1502'> +1.4211944e+00 </wgt>
<wgt id='1503'> +1.4216660e+00 </wgt>
<wgt id='1504'> +1.4215916e+00 </wgt>
<wgt id='1505'> +1.4214416e+00 </wgt>
<wgt id='1506'> +1.4213180e+00 </wgt>
<wgt id='1507'> +1.4210392e+00 </wgt>
<wgt id='1508'> +1.4214003e+00 </wgt>
<wgt id='1509'> +1.4220981e+00 </wgt>
<wgt id='1510'> +1.4216892e+00 </wgt>
<wgt id='1511'> +1.4212701e+00 </wgt>
<wgt id='1512'> +1.4207696e+00 </wgt>
<wgt id='1513'> +1.3905890e+00 </wgt>
<wgt id='1514'> +1.3901683e+00 </wgt>
<wgt id='1515'> +1.3910580e+00 </wgt>
<wgt id='1516'> +1.3931863e+00 </wgt>
<wgt id='1517'> +1.3880022e+00 </wgt>
<wgt id='1518'> +1.3933382e+00 </wgt>
<wgt id='1519'> +1.3894929e+00 </wgt>
<wgt id='1520'> +1.3922185e+00 </wgt>
<wgt id='1521'> +1.3889455e+00 </wgt>
<wgt id='1522'> +1.3970956e+00 </wgt>
<wgt id='1523'> +1.3843064e+00 </wgt>
<wgt id='1524'> +1.4023896e+00 </wgt>
<wgt id='1525'> +1.3854451e+00 </wgt>
<wgt id='1526'> +1.3858554e+00 </wgt>
<wgt id='1527'> +1.3963384e+00 </wgt>
<wgt id='1528'> +1.4129962e+00 </wgt>
<wgt id='1529'> +1.3663848e+00 </wgt>
<wgt id='1530'> +1.3789344e+00 </wgt>
<wgt id='1531'> +1.3971359e+00 </wgt>
<wgt id='1532'> +1.3970126e+00 </wgt>
<wgt id='1533'> +1.3817992e+00 </wgt>
<wgt id='1534'> +1.3907001e+00 </wgt>
<wgt id='1535'> +1.3904152e+00 </wgt>
<wgt id='1536'> +1.3891850e+00 </wgt>
<wgt id='1537'> +1.3918537e+00 </wgt>
<wgt id='1538'> +1.3895252e+00 </wgt>
<wgt id='1539'> +1.3930964e+00 </wgt>
<wgt id='1540'> +1.3779205e+00 </wgt>
<wgt id='1541'> +1.3780836e+00 </wgt>
<wgt id='1542'> +1.3840798e+00 </wgt>
<wgt id='1543'> +1.4082429e+00 </wgt>
<wgt id='1544'> +1.3966522e+00 </wgt>
<wgt id='1545'> +1.3755106e+00 </wgt>
<wgt id='1546'> +1.3896278e+00 </wgt>
<wgt id='1547'> +1.3913532e+00 </wgt>
<wgt id='1548'> +1.3918020e+00 </wgt>
<wgt id='1549'> +1.3892587e+00 </wgt>
<wgt id='1550'> +1.3903576e+00 </wgt>
<wgt id='1551'> +1.3889476e+00 </wgt>
<wgt id='1552'> +1.3853558e+00 </wgt>
<wgt id='1553'> +1.3935639e+00 </wgt>
<wgt id='1554'> +1.3984436e+00 </wgt>
<wgt id='1555'> +1.3729914e+00 </wgt>
<wgt id='1556'> +1.3852904e+00 </wgt>
<wgt id='1557'> +1.3955432e+00 </wgt>
<wgt id='1558'> +1.3754660e+00 </wgt>
<wgt id='1559'> +1.4009399e+00 </wgt>
<wgt id='1560'> +1.4125470e+00 </wgt>
<wgt id='1561'> +1.3811016e+00 </wgt>
<wgt id='1562'> +1.3812531e+00 </wgt>
<wgt id='1563'> +1.3964711e+00 </wgt>
<wgt id='1564'> +1.3905890e+00 </wgt>
<wgt id='1565'> +1.3866348e+00 </wgt>
<wgt id='1566'> +1.3890767e+00 </wgt>
<wgt id='1567'> +1.3884262e+00 </wgt>
<wgt id='1568'> +1.3863669e+00 </wgt>
<wgt id='1569'> +1.3871853e+00 </wgt>
<wgt id='1570'> +1.3877293e+00 </wgt>
<wgt id='1571'> +1.3880233e+00 </wgt>
<wgt id='1572'> +1.3882677e+00 </wgt>
<wgt id='1573'> +1.3885390e+00 </wgt>
<wgt id='1574'> +1.3872476e+00 </wgt>
<wgt id='1575'> +1.3872601e+00 </wgt>
<wgt id='1576'> +1.3884262e+00 </wgt>
<wgt id='1577'> +1.3893423e+00 </wgt>
<wgt id='1578'> +1.3889793e+00 </wgt>
<wgt id='1579'> +1.3882708e+00 </wgt>
<wgt id='1580'> +1.3880602e+00 </wgt>
<wgt id='1581'> +1.3388757e+00 </wgt>
<wgt id='1582'> +1.3395553e+00 </wgt>
<wgt id='1583'> +1.3545897e+00 </wgt>
<wgt id='1584'> +1.3335258e+00 </wgt>
<wgt id='1585'> +1.3333823e+00 </wgt>
<wgt id='1586'> +1.3507536e+00 </wgt>
<wgt id='1587'> +1.3415254e+00 </wgt>
<wgt id='1588'> +1.3159737e+00 </wgt>
<wgt id='1589'> +1.3392463e+00 </wgt>
<wgt id='1590'> +1.3017838e+00 </wgt>
<wgt id='1591'> +1.3371990e+00 </wgt>
<wgt id='1592'> +1.3445478e+00 </wgt>
<wgt id='1593'> +1.3409275e+00 </wgt>
<wgt id='1594'> +1.3341309e+00 </wgt>
<wgt id='1595'> +1.3456146e+00 </wgt>
<wgt id='1596'> +1.3471110e+00 </wgt>
<wgt id='1597'> +1.3351608e+00 </wgt>
<wgt id='1598'> +1.3361657e+00 </wgt>
<wgt id='1599'> +1.3625640e+00 </wgt>
<wgt id='1600'> +1.3449661e+00 </wgt>
<wgt id='1601'> +1.3387706e+00 </wgt>
<wgt id='1602'> +1.3386635e+00 </wgt>
<wgt id='1603'> +1.3316975e+00 </wgt>
<wgt id='1604'> +1.3671987e+00 </wgt>
<wgt id='1605'> +1.3400731e+00 </wgt>
<wgt id='1606'> +1.3401116e+00 </wgt>
<wgt id='1607'> +1.3431303e+00 </wgt>
<wgt id='1608'> +1.3307888e+00 </wgt>
<wgt id='1609'> +1.3394586e+00 </wgt>
<wgt id='1610'> +1.3347400e+00 </wgt>
<wgt id='1611'> +1.3431463e+00 </wgt>
<wgt id='1612'> +1.3450977e+00 </wgt>
<wgt id='1613'> +1.3405450e+00 </wgt>
<wgt id='1614'> +1.3520420e+00 </wgt>
<wgt id='1615'> +1.3494644e+00 </wgt>
<wgt id='1616'> +1.3407964e+00 </wgt>
<wgt id='1617'> +1.3434853e+00 </wgt>
<wgt id='1618'> +1.3487060e+00 </wgt>
<wgt id='1619'> +1.3400326e+00 </wgt>
<wgt id='1620'> +1.3452024e+00 </wgt>
<wgt id='1621'> +1.3406231e+00 </wgt>
<wgt id='1622'> +1.3495795e+00 </wgt>
<wgt id='1623'> +1.3402958e+00 </wgt>
<wgt id='1624'> +1.3424217e+00 </wgt>
<wgt id='1625'> +1.3448027e+00 </wgt>
<wgt id='1626'> +1.3496501e+00 </wgt>
<wgt id='1627'> +1.3470973e+00 </wgt>
<wgt id='1628'> +1.3484855e+00 </wgt>
<wgt id='1629'> +1.3478367e+00 </wgt>
<wgt id='1630'> +1.3471034e+00 </wgt>
<wgt id='1631'> +1.3399785e+00 </wgt>
<wgt id='1632'> +1.3452745e+00 </wgt>
<wgt id='1633'> +1.3413761e+00 </wgt>
<wgt id='1634'> +1.3498808e+00 </wgt>
<wgt id='1635'> +1.3406224e+00 </wgt>
<wgt id='1636'> +1.3527394e+00 </wgt>
<wgt id='1637'> +1.3467529e+00 </wgt>
<wgt id='1638'> +1.3478696e+00 </wgt>
<wgt id='1639'> +1.3535572e+00 </wgt>
<wgt id='1640'> +1.3459148e+00 </wgt>
<wgt id='1641'> +1.3308141e+00 </wgt>
<wgt id='1642'> +1.3413870e+00 </wgt>
<wgt id='1643'> +1.3439581e+00 </wgt>
<wgt id='1644'> +1.3355516e+00 </wgt>
<wgt id='1645'> +1.3491817e+00 </wgt>
<wgt id='1646'> +1.3445445e+00 </wgt>
<wgt id='1647'> +1.3469152e+00 </wgt>
<wgt id='1648'> +1.3471314e+00 </wgt>
<wgt id='1649'> +1.3478312e+00 </wgt>
<wgt id='1650'> +1.3326481e+00 </wgt>
<wgt id='1651'> +1.3415562e+00 </wgt>
<wgt id='1652'> +1.3462172e+00 </wgt>
<wgt id='1653'> +1.3404656e+00 </wgt>
<wgt id='1654'> +1.3435676e+00 </wgt>
<wgt id='1655'> +1.3479256e+00 </wgt>
<wgt id='1656'> +1.3439211e+00 </wgt>
<wgt id='1657'> +1.3496088e+00 </wgt>
<wgt id='1658'> +1.3433108e+00 </wgt>
<wgt id='1659'> +1.3410547e+00 </wgt>
<wgt id='1660'> +1.3510312e+00 </wgt>
<wgt id='1661'> +1.3412302e+00 </wgt>
<wgt id='1662'> +1.3522619e+00 </wgt>
<wgt id='1663'> +1.3513968e+00 </wgt>
<wgt id='1664'> +1.3420097e+00 </wgt>
<wgt id='1665'> +1.3502418e+00 </wgt>
<wgt id='1666'> +1.3468560e+00 </wgt>
<wgt id='1667'> +1.3579417e+00 </wgt>
<wgt id='1668'> +1.3563656e+00 </wgt>
<wgt id='1669'> +1.3440142e+00 </wgt>
<wgt id='1670'> +1.3412733e+00 </wgt>
<wgt id='1671'> +1.3472137e+00 </wgt>
<wgt id='1672'> +1.3419664e+00 </wgt>
<wgt id='1673'> +1.3391959e+00 </wgt>
<wgt id='1674'> +1.3507908e+00 </wgt>
<wgt id='1675'> +1.3435633e+00 </wgt>
<wgt id='1676'> +1.3480788e+00 </wgt>
<wgt id='1677'> +1.3479828e+00 </wgt>
<wgt id='1678'> +1.3379795e+00 </wgt>
<wgt id='1679'> +1.3402793e+00 </wgt>
<wgt id='1680'> +1.3368230e+00 </wgt>
<wgt id='1681'> +1.3507484e+00 </wgt>
<wgt id='1682'> +1.3401878e+00 </wgt>
<wgt id='1683'> +1.3488336e+00 </wgt>
<wgt id='1684'> +1.3455321e+00 </wgt>
<wgt id='1685'> +1.3451015e+00 </wgt>
<wgt id='1686'> +1.3434953e+00 </wgt>
<wgt id='1687'> +1.3434613e+00 </wgt>
<wgt id='1688'> +1.3408901e+00 </wgt>
<wgt id='1689'> +1.3454999e+00 </wgt>
<wgt id='1690'> +1.3440650e+00 </wgt>
<wgt id='1691'> +1.3372839e+00 </wgt>
<wgt id='1692'> +1.3479526e+00 </wgt>
<wgt id='1693'> +1.3478511e+00 </wgt>
<wgt id='1694'> +1.3493853e+00 </wgt>
<wgt id='1695'> +1.3411793e+00 </wgt>
<wgt id='1696'> +1.3462174e+00 </wgt>
<wgt id='1697'> +1.3420413e+00 </wgt>
<wgt id='1698'> +1.3410323e+00 </wgt>
<wgt id='1699'> +1.3448110e+00 </wgt>
<wgt id='1700'> +1.3442603e+00 </wgt>
<wgt id='1701'> +1.3471127e+00 </wgt>
<wgt id='1702'> +1.3448440e+00 </wgt>
<wgt id='1703'> +1.3458609e+00 </wgt>
<wgt id='1704'> +1.3414789e+00 </wgt>
<wgt id='1705'> +1.3437676e+00 </wgt>
<wgt id='1706'> +1.3435951e+00 </wgt>
<wgt id='1707'> +1.3430178e+00 </wgt>
<wgt id='1708'> +1.3430837e+00 </wgt>
<wgt id='1709'> +1.3468739e+00 </wgt>
<wgt id='1710'> +1.3433343e+00 </wgt>
<wgt id='1711'> +1.3440852e+00 </wgt>
<wgt id='1712'> +1.3456364e+00 </wgt>
<wgt id='1713'> +1.3122614e+00 </wgt>
<wgt id='1714'> +1.3740981e+00 </wgt>
<wgt id='1715'> +1.2972962e+00 </wgt>
<wgt id='1716'> +1.2875503e+00 </wgt>
<wgt id='1717'> +1.2822850e+00 </wgt>
<wgt id='1718'> +1.3128464e+00 </wgt>
<wgt id='1719'> +1.2145436e+00 </wgt>
<wgt id='1720'> +1.3523548e+00 </wgt>
<wgt id='1721'> +1.3242023e+00 </wgt>
<wgt id='1722'> +1.3710472e+00 </wgt>
<wgt id='1723'> +1.3397847e+00 </wgt>
<wgt id='1724'> +1.3224250e+00 </wgt>
<wgt id='1725'> +1.2834632e+00 </wgt>
<wgt id='1726'> +1.2855779e+00 </wgt>
<wgt id='1727'> +1.3166251e+00 </wgt>
<wgt id='1728'> +1.2637259e+00 </wgt>
<wgt id='1729'> +1.2424472e+00 </wgt>
<wgt id='1730'> +1.2387198e+00 </wgt>
<wgt id='1731'> +1.2208862e+00 </wgt>
<wgt id='1732'> +1.2837251e+00 </wgt>
<wgt id='1733'> +1.3435342e+00 </wgt>
<wgt id='1734'> +1.3740349e+00 </wgt>
<wgt id='1735'> +1.2941125e+00 </wgt>
<wgt id='1736'> +1.3127088e+00 </wgt>
<wgt id='1737'> +1.2994095e+00 </wgt>
<wgt id='1738'> +1.3036346e+00 </wgt>
<wgt id='1739'> +1.3090291e+00 </wgt>
<wgt id='1740'> +1.2737004e+00 </wgt>
<wgt id='1741'> +1.2067112e+00 </wgt>
<wgt id='1742'> +1.3445990e+00 </wgt>
<wgt id='1743'> +1.2826501e+00 </wgt>
<wgt id='1744'> +1.2513615e+00 </wgt>
<wgt id='1745'> +1.2491349e+00 </wgt>
<wgt id='1746'> +1.2325431e+00 </wgt>
<wgt id='1747'> +1.3095358e+00 </wgt>
<wgt id='1748'> +1.2847069e+00 </wgt>
<wgt id='1749'> +1.3167061e+00 </wgt>
<wgt id='1750'> +1.3113593e+00 </wgt>
<wgt id='1751'> +1.3054996e+00 </wgt>
<wgt id='1752'> +1.2537814e+00 </wgt>
<wgt id='1753'> +1.3156494e+00 </wgt>
<wgt id='1754'> +1.3371520e+00 </wgt>
<wgt id='1755'> +1.2258241e+00 </wgt>
<wgt id='1756'> +1.2913230e+00 </wgt>
<wgt id='1757'> +1.2592230e+00 </wgt>
<wgt id='1758'> +1.3108276e+00 </wgt>
<wgt id='1759'> +1.3770625e+00 </wgt>
<wgt id='1760'> +1.3994445e+00 </wgt>
<wgt id='1761'> +1.3363214e+00 </wgt>
<wgt id='1762'> +1.3166251e+00 </wgt>
<wgt id='1763'> +1.3164535e+00 </wgt>
<wgt id='1764'> +1.3750747e+00 </wgt>
<wgt id='1765'> +1.2926635e+00 </wgt>
<wgt id='1766'> +1.2868447e+00 </wgt>
<wgt id='1767'> +1.2914170e+00 </wgt>
<wgt id='1768'> +1.1846277e+00 </wgt>
<wgt id='1769'> +1.2208133e+00 </wgt>
<wgt id='1770'> +1.3672831e+00 </wgt>
<wgt id='1771'> +1.2898344e+00 </wgt>
<wgt id='1772'> +1.4222559e+00 </wgt>
<wgt id='1773'> +1.2743652e+00 </wgt>
<wgt id='1774'> +1.3215039e+00 </wgt>
<wgt id='1775'> +1.3058165e+00 </wgt>
<wgt id='1776'> +1.2484727e+00 </wgt>
<wgt id='1777'> +1.3308703e+00 </wgt>
<wgt id='1778'> +1.3245223e+00 </wgt>
<wgt id='1779'> +1.2752556e+00 </wgt>
<wgt id='1780'> +1.3189656e+00 </wgt>
<wgt id='1781'> +1.2928478e+00 </wgt>
<wgt id='1782'> +1.2987117e+00 </wgt>
<wgt id='1783'> +1.2305718e+00 </wgt>
<wgt id='1784'> +1.2830227e+00 </wgt>
<wgt id='1785'> +1.3051141e+00 </wgt>
<wgt id='1786'> +1.4096948e+00 </wgt>
<wgt id='1787'> +1.3112935e+00 </wgt>
<wgt id='1788'> +1.2714842e+00 </wgt>
<wgt id='1789'> +1.2563457e+00 </wgt>
<wgt id='1790'> +1.2278791e+00 </wgt>
<wgt id='1791'> +1.2075422e+00 </wgt>
<wgt id='1792'> +1.3227625e+00 </wgt>
<wgt id='1793'> +1.3378979e+00 </wgt>
<wgt id='1794'> +1.3616910e+00 </wgt>
<wgt id='1795'> +1.3637160e+00 </wgt>
<wgt id='1796'> +1.2554762e+00 </wgt>
<wgt id='1797'> +1.2660647e+00 </wgt>
<wgt id='1798'> +1.3136142e+00 </wgt>
<wgt id='1799'> +1.2533923e+00 </wgt>
<wgt id='1800'> +1.3089639e+00 </wgt>
<wgt id='1801'> +1.2093906e+00 </wgt>
<wgt id='1802'> +1.3162326e+00 </wgt>
<wgt id='1803'> +1.2573289e+00 </wgt>
<wgt id='1804'> +1.3050262e+00 </wgt>
<wgt id='1805'> +1.3777520e+00 </wgt>
<wgt id='1806'> +1.2566492e+00 </wgt>
<wgt id='1807'> +1.2973138e+00 </wgt>
<wgt id='1808'> +1.3358510e+00 </wgt>
<wgt id='1809'> +1.2867044e+00 </wgt>
<wgt id='1810'> +1.3345767e+00 </wgt>
<wgt id='1811'> +1.3291357e+00 </wgt>
<wgt id='1812'> +1.2873668e+00 </wgt>
<wgt id='1813'> +1.3669288e+00 </wgt>
<wgt id='1814'> +1.1413545e+00 </wgt>
<wgt id='1815'> +1.3302122e+00 </wgt>
<wgt id='1816'> +1.3120631e+00 </wgt>
<wgt id='1817'> +1.3362730e+00 </wgt>
<wgt id='1818'> +1.2764421e+00 </wgt>
<wgt id='1819'> +1.2992078e+00 </wgt>
<wgt id='1820'> +1.2863023e+00 </wgt>
<wgt id='1821'> +1.3385630e+00 </wgt>
<wgt id='1822'> +1.3481253e+00 </wgt>
<wgt id='1823'> +1.3729189e+00 </wgt>
<wgt id='1824'> +1.3191062e+00 </wgt>
<wgt id='1825'> +1.3317783e+00 </wgt>
<wgt id='1826'> +1.2712819e+00 </wgt>
<wgt id='1827'> +1.2651892e+00 </wgt>
<wgt id='1828'> +1.3421914e+00 </wgt>
<wgt id='1829'> +1.3771343e+00 </wgt>
<wgt id='1830'> +1.2562205e+00 </wgt>
<wgt id='1831'> +1.3039764e+00 </wgt>
<wgt id='1832'> +1.3237198e+00 </wgt>
<wgt id='1833'> +1.2360589e+00 </wgt>
<wgt id='1834'> +1.2868234e+00 </wgt>
<wgt id='1835'> +1.3426234e+00 </wgt>
<wgt id='1836'> +1.2841584e+00 </wgt>
<wgt id='1837'> +1.4173872e+00 </wgt>
<wgt id='1838'> +1.3074706e+00 </wgt>
<wgt id='1839'> +1.4370859e+00 </wgt>
<wgt id='1840'> +1.3541351e+00 </wgt>
<wgt id='1841'> +1.3185207e+00 </wgt>
<wgt id='1842'> +1.3420829e+00 </wgt>
<wgt id='1843'> +1.2515004e+00 </wgt>
<wgt id='1844'> +1.2923337e+00 </wgt>
<wgt id='1845'> +1.3143518e+00 </wgt>
<wgt id='1846'> +1.3370230e+00 </wgt>
<wgt id='1847'> +1.2974529e+00 </wgt>
<wgt id='1848'> +1.3737818e+00 </wgt>
<wgt id='1849'> +1.2345401e+00 </wgt>
<wgt id='1850'> +1.3442505e+00 </wgt>
<wgt id='1851'> +1.3564203e+00 </wgt>
<wgt id='1852'> +1.3602228e+00 </wgt>
<wgt id='1853'> +1.2561420e+00 </wgt>
<wgt id='1854'> +1.4079625e+00 </wgt>
<wgt id='1855'> +1.2875925e+00 </wgt>
<wgt id='1856'> +1.2734309e+00 </wgt>
<wgt id='1857'> +1.3827948e+00 </wgt>
<wgt id='1858'> +1.2370394e+00 </wgt>
<wgt id='1859'> +1.2635141e+00 </wgt>
<wgt id='1860'> +1.2808715e+00 </wgt>
<wgt id='1861'> +1.3701107e+00 </wgt>
<wgt id='1862'> +1.2813752e+00 </wgt>
<wgt id='1863'> +1.3093207e+00 </wgt>
<wgt id='1864'> +1.3161003e+00 </wgt>
<wgt id='1865'> +1.1988400e+00 </wgt>
<wgt id='1866'> +1.2803888e+00 </wgt>
<wgt id='1867'> +1.3255140e+00 </wgt>
<wgt id='1868'> +1.3801713e+00 </wgt>
<wgt id='1869'> +1.2395977e+00 </wgt>
<wgt id='1870'> +1.3891344e+00 </wgt>
<wgt id='1871'> +1.2994845e+00 </wgt>
<wgt id='1872'> +1.2818432e+00 </wgt>
<wgt id='1873'> +1.2657132e+00 </wgt>
<wgt id='1874'> +1.2999194e+00 </wgt>
<wgt id='1875'> +1.2429112e+00 </wgt>
<wgt id='1876'> +1.3794250e+00 </wgt>
<wgt id='1877'> +1.3413411e+00 </wgt>
<wgt id='1878'> +1.2313334e+00 </wgt>
<wgt id='1879'> +1.4047078e+00 </wgt>
<wgt id='1880'> +1.2118795e+00 </wgt>
<wgt id='1881'> +1.2675085e+00 </wgt>
<wgt id='1882'> +1.3456693e+00 </wgt>
<wgt id='1883'> +1.5013855e+00 </wgt>
<wgt id='1884'> +1.2519877e+00 </wgt>
<wgt id='1885'> +1.3333435e+00 </wgt>
<wgt id='1886'> +1.2673671e+00 </wgt>
<wgt id='1887'> +1.3437378e+00 </wgt>
<wgt id='1888'> +1.3128531e+00 </wgt>
<wgt id='1889'> +1.3519003e+00 </wgt>
<wgt id='1890'> +1.3327720e+00 </wgt>
<wgt id='1891'> +1.2696042e+00 </wgt>
<wgt id='1892'> +1.3108796e+00 </wgt>
<wgt id='1893'> +1.3149259e+00 </wgt>
<wgt id='1894'> +1.3753253e+00 </wgt>
<wgt id='1895'> +1.2451447e+00 </wgt>
<wgt id='1896'> +1.3011173e+00 </wgt>
<wgt id='1897'> +1.3053693e+00 </wgt>
<wgt id='1898'> +1.3580515e+00 </wgt>
<wgt id='1899'> +1.1950766e+00 </wgt>
<wgt id='1900'> +1.3185615e+00 </wgt>
<wgt id='1901'> +1.3214175e+00 </wgt>
<wgt id='1902'> +1.3518810e+00 </wgt>
<wgt id='1903'> +1.2644559e+00 </wgt>
<wgt id='1904'> +1.3009332e+00 </wgt>
<wgt id='1905'> +1.3339215e+00 </wgt>
<wgt id='1906'> +1.3396050e+00 </wgt>
<wgt id='1907'> +1.3490423e+00 </wgt>
<wgt id='1908'> +1.3558503e+00 </wgt>
<wgt id='1909'> +1.2897119e+00 </wgt>
<wgt id='1910'> +1.2764983e+00 </wgt>
<wgt id='1911'> +1.2070911e+00 </wgt>
<wgt id='1912'> +1.3546621e+00 </wgt>
<wgt id='1913'> +1.3416893e+00 </wgt>
<wgt id='1914'> +1.3360484e+00 </wgt>
<wgt id='1915'> +1.3216061e+00 </wgt>
<wgt id='1916'> +1.1789568e+00 </wgt>
<wgt id='1917'> +1.3097577e+00 </wgt>
<wgt id='1918'> +1.4337435e+00 </wgt>
<wgt id='1919'> +1.3120631e+00 </wgt>
<wgt id='1920'> +1.3362730e+00 </wgt>
<wgt id='1921'> +1.2764421e+00 </wgt>
<wgt id='1922'> +1.2992078e+00 </wgt>
<wgt id='1923'> +1.2863023e+00 </wgt>
<wgt id='1924'> +1.3385630e+00 </wgt>
<wgt id='1925'> +1.3481253e+00 </wgt>
<wgt id='1926'> +1.3729189e+00 </wgt>
<wgt id='1927'> +1.3191062e+00 </wgt>
<wgt id='1928'> +1.3317783e+00 </wgt>
<wgt id='1929'> +1.2712819e+00 </wgt>
<wgt id='1930'> +1.2651892e+00 </wgt>
<wgt id='1931'> +1.3421914e+00 </wgt>
<wgt id='1932'> +1.3771343e+00 </wgt>
<wgt id='1933'> +1.2562205e+00 </wgt>
<wgt id='1934'> +1.3039764e+00 </wgt>
<wgt id='1935'> +1.3237198e+00 </wgt>
<wgt id='1936'> +1.2360589e+00 </wgt>
<wgt id='1937'> +1.2868234e+00 </wgt>
<wgt id='1938'> +1.3426234e+00 </wgt>
<wgt id='1939'> +1.2841584e+00 </wgt>
<wgt id='1940'> +1.4173872e+00 </wgt>
<wgt id='1941'> +1.3074706e+00 </wgt>
<wgt id='1942'> +1.4370859e+00 </wgt>
<wgt id='1943'> +1.3541351e+00 </wgt>
<wgt id='1944'> +1.3185207e+00 </wgt>
<wgt id='1945'> +1.3420829e+00 </wgt>
<wgt id='1946'> +1.2515004e+00 </wgt>
<wgt id='1947'> +1.2923337e+00 </wgt>
<wgt id='1948'> +1.3143518e+00 </wgt>
<wgt id='1949'> +1.3370230e+00 </wgt>
<wgt id='1950'> +1.2974529e+00 </wgt>
<wgt id='1951'> +1.3737818e+00 </wgt>
<wgt id='1952'> +1.2345401e+00 </wgt>
<wgt id='1953'> +1.3442505e+00 </wgt>
<wgt id='1954'> +1.3564203e+00 </wgt>
<wgt id='1955'> +1.3602228e+00 </wgt>
<wgt id='1956'> +1.2561420e+00 </wgt>
<wgt id='1957'> +1.4079625e+00 </wgt>
<wgt id='1958'> +1.2875925e+00 </wgt>
<wgt id='1959'> +1.2734309e+00 </wgt>
<wgt id='1960'> +1.3827948e+00 </wgt>
<wgt id='1961'> +1.2370394e+00 </wgt>
<wgt id='1962'> +1.2635141e+00 </wgt>
<wgt id='1963'> +1.2808715e+00 </wgt>
<wgt id='1964'> +1.3701107e+00 </wgt>
<wgt id='1965'> +1.2813752e+00 </wgt>
<wgt id='1966'> +1.3093207e+00 </wgt>
<wgt id='1967'> +1.3161003e+00 </wgt>
<wgt id='1968'> +1.1988400e+00 </wgt>
<wgt id='1969'> +1.2803888e+00 </wgt>
<wgt id='1970'> +1.3255140e+00 </wgt>
<wgt id='1971'> +1.3801713e+00 </wgt>
<wgt id='1972'> +1.2395977e+00 </wgt>
<wgt id='1973'> +1.3891344e+00 </wgt>
<wgt id='1974'> +1.2994845e+00 </wgt>
<wgt id='1975'> +1.2818432e+00 </wgt>
<wgt id='1976'> +1.2657132e+00 </wgt>
<wgt id='1977'> +1.2999194e+00 </wgt>
<wgt id='1978'> +1.2429112e+00 </wgt>
<wgt id='1979'> +1.3794250e+00 </wgt>
<wgt id='1980'> +1.3413411e+00 </wgt>
<wgt id='1981'> +1.2313334e+00 </wgt>
<wgt id='1982'> +1.4047078e+00 </wgt>
<wgt id='1983'> +1.2118795e+00 </wgt>
<wgt id='1984'> +1.2675085e+00 </wgt>
<wgt id='1985'> +1.3456693e+00 </wgt>
<wgt id='1986'> +1.5013855e+00 </wgt>
<wgt id='1987'> +1.2519877e+00 </wgt>
<wgt id='1988'> +1.3333435e+00 </wgt>
<wgt id='1989'> +1.2673671e+00 </wgt>
<wgt id='1990'> +1.3437378e+00 </wgt>
<wgt id='1991'> +1.3128531e+00 </wgt>
<wgt id='1992'> +1.3519003e+00 </wgt>
<wgt id='1993'> +1.3327720e+00 </wgt>
<wgt id='1994'> +1.2696042e+00 </wgt>
<wgt id='1995'> +1.3108796e+00 </wgt>
<wgt id='1996'> +1.3149259e+00 </wgt>
<wgt id='1997'> +1.3753253e+00 </wgt>
<wgt id='1998'> +1.2451447e+00 </wgt>
<wgt id='1999'> +1.3011173e+00 </wgt>
<wgt id='2000'> +1.3053693e+00 </wgt>
<wgt id='2001'> +1.3580515e+00 </wgt>
<wgt id='2002'> +1.1950766e+00 </wgt>
<wgt id='2003'> +1.3185615e+00 </wgt>
<wgt id='2004'> +1.3214175e+00 </wgt>
<wgt id='2005'> +1.3518810e+00 </wgt>
<wgt id='2006'> +1.2644559e+00 </wgt>
<wgt id='2007'> +1.3009332e+00 </wgt>
<wgt id='2008'> +1.3339215e+00 </wgt>
<wgt id='2009'> +1.3396050e+00 </wgt>
<wgt id='2010'> +1.3490423e+00 </wgt>
<wgt id='2011'> +1.3558503e+00 </wgt>
<wgt id='2012'> +1.2897119e+00 </wgt>
<wgt id='2013'> +1.2764983e+00 </wgt>
<wgt id='2014'> +1.2070911e+00 </wgt>
<wgt id='2015'> +1.3546621e+00 </wgt>
<wgt id='2016'> +1.3416893e+00 </wgt>
<wgt id='2017'> +1.3360484e+00 </wgt>
<wgt id='2018'> +1.3216061e+00 </wgt>
<wgt id='2019'> +1.1789568e+00 </wgt>
<wgt id='2020'> +1.3131713e+00 </wgt>
<wgt id='2021'> +1.3210292e+00 </wgt>
<wgt id='2022'> +1.2914155e+00 </wgt>
</rwgt>
</event>
<event>
13      2 +1.3581722e+00 8.07628800e+01 7.81860800e-03 1.20971400e-01
       21 -1    0    0  502  503 +0.0000000000e+00 +0.0000000000e+00 +1.9733668090e+02 1.9733668090e+02 0.0000000000e+00 0.0000e+00 1.0000e+00
        1 -1    0    0  501    0 +0.0000000000e+00 +0.0000000000e+00 -6.0781424660e+02 6.0781424662e+02 5.0400000000e-03 0.0000e+00 -1.0000e+00
 -8000001  2    1    2    0  503 +5.2452893113e+01 +2.1072368703e+00 -3.7603913321e+02 7.1003967203e+02 5.9999596641e+02 0.0000e+00 0.0000e+00
        2  1    1    2  501    0 -4.2912365902e+01 +6.9600781108e-02 -5.6252007905e+01 7.0751426779e+01 2.5500000000e-03 0.0000e+00 -1.0000e+00
        5  1    1    2  502    0 -9.5405272111e+00 -2.1768376515e+00 +2.1813575416e+01 2.4359828710e+01 4.6700000000e+00 0.0000e+00 -1.0000e+00
       -6  2    3    3    0  503 +9.8082094211e+01 -1.0958718989e+02 +7.1004382844e+01 2.3858369166e+02 1.7392845124e+02 0.0000e+00 0.0000e+00
       -5  1    6    6    0  503 +2.9059910988e+01 -1.0079677249e+02 +7.7032721725e+01 1.3023178141e+02 4.6700000000e+00 0.0000e+00 1.0000e+00
      -24  2    6    6    0    0 +6.9022183224e+01 -8.7904173940e+00 -6.0283388813e+00 1.0835191025e+02 8.2839980512e+01 0.0000e+00 0.0000e+00
      -14  1    8    8    0    0 -5.1261602795e+00 +1.9742282863e+01 -1.8971306438e+01 2.7855802265e+01 0.0000000000e+00 0.0000e+00 1.0000e+00
       13  1    8    8    0    0 +7.4148343503e+01 -2.8532700258e+01 +1.2942967556e+01 8.0496107989e+01 1.0566000000e-01 0.0000e+00 -1.0000e+00
       23  2    3    3    0    0 -4.5629201099e+01 +1.1169442675e+02 -4.4704351605e+02 4.7145598037e+02 8.8685777995e+01 0.0000e+00 0.0000e+00
        5  1   11   11  504    0 -4.6582316144e+01 +1.0779834616e+02 -2.7199993818e+02 2.9630418640e+02 4.6700000000e+00 0.0000e+00 -1.0000e+00
       -5  1   11   11    0  504 +9.5311504568e-01 +3.8960805980e+00 -1.7504357788e+02 1.7515179397e+02 4.6700000000e+00 0.0000e+00 1.0000e+00
<mgrwt>
<rscale>  1 0.59142068e+02</rscale>
<asrwt>0</asrwt>
<pdfrwt beam="1">  1       21 0.30359490e-01 0.80762876e+02</pdfrwt>
<pdfrwt beam="2">  1        1 0.93509883e-01 0.43309307e+02</pdfrwt>
<totfact> 0.49417171e+03</totfact>
</mgrwt>
<rwgt>
<wgt id='1001'> +1.3581722e+00 </wgt>
<wgt id='1002'> +9.2729249e-01 </wgt>
<wgt id='1003'> +9.2587922e-01 </wgt>
<wgt id='1004'> +1.0570704e+00 </wgt>
<wgt id='1005'> +8.3141747e-01 </wgt>
<wgt id='1006'> +1.2148750e+00 </wgt>
<wgt id='1007'> +8.5191952e-01 </wgt>
<wgt id='1008'> +8.5069650e-01 </wgt>
<wgt id='1009'> +9.6324338e-01 </wgt>
<wgt id='1010'> +7.6848475e-01 </wgt>
<wgt id='1011'> +1.5414161e+00 </wgt>
<wgt id='1012'> +1.0177285e+00 </wgt>
<wgt id='1013'> +1.0160667e+00 </wgt>
<wgt id='1014'> +1.1718224e+00 </wgt>
<wgt id='1015'> +9.0587617e-01 </wgt>
<wgt id='1016'> +1.3075074e+00 </wgt>
<wgt id='1017'> +8.9074516e-01 </wgt>
<wgt id='1018'> +8.8938753e-01 </wgt>
<wgt id='1019'> +1.0160667e+00 </wgt>
<wgt id='1020'> +7.9859092e-01 </wgt>
<wgt id='1021'> +1.1695557e+00 </wgt>
<wgt id='1022'> +8.1834287e-01 </wgt>
<wgt id='1023'> +8.1716799e-01 </wgt>
<wgt id='1024'> +9.2587922e-01 </wgt>
<wgt id='1025'> +7.3814295e-01 </wgt>
<wgt id='1026'> +1.4839157e+00 </wgt>
<wgt id='1027'> +9.7761681e-01 </wgt>
<wgt id='1028'> +9.7602046e-01 </wgt>
<wgt id='1029'> +1.1263674e+00 </wgt>
<wgt id='1030'> +8.7010979e-01 </wgt>
<wgt id='1031'> +1.4044457e+00 </wgt>
<wgt id='1032'> +9.6469962e-01 </wgt>
<wgt id='1033'> +9.6324338e-01 </wgt>
<wgt id='1034'> +1.0977469e+00 </wgt>
<wgt id='1035'> +8.6555112e-01 </wgt>
<wgt id='1036'> +1.2562662e+00 </wgt>
<wgt id='1037'> +8.8628610e-01 </wgt>
<wgt id='1038'> +8.8502664e-01 </wgt>
<wgt id='1039'> +1.0003093e+00 </wgt>
<wgt id='1040'> +8.0003472e-01 </wgt>
<wgt id='1041'> +1.5939328e+00 </wgt>
<wgt id='1042'> +1.0587838e+00 </wgt>
<wgt id='1043'> +1.0570704e+00 </wgt>
<wgt id='1044'> +1.2169145e+00 </wgt>
<wgt id='1045'> +9.4306671e-01 </wgt>
<wgt id='1046'> +1.3581722e+00 </wgt>
<wgt id='1047'> +1.3581722e+00 </wgt>
<wgt id='1048'> +1.3581722e+00 </wgt>
<wgt id='1049'> +1.3594241e+00 </wgt>
<wgt id='1050'> +1.3566868e+00 </wgt>
<wgt id='1051'> +1.3568049e+00 </wgt>
<wgt id='1052'> +1.3562414e+00 </wgt>
<wgt id='1053'> +1.3639811e+00 </wgt>
<wgt id='1054'> +1.3577145e+00 </wgt>
<wgt id='1055'> +1.3563118e+00 </wgt>
<wgt id='1056'> +1.3602915e+00 </wgt>
<wgt id='1057'> +1.3552203e+00 </wgt>
<wgt id='1058'> +1.3571722e+00 </wgt>
<wgt id='1059'> +1.3527001e+00 </wgt>
<wgt id='1060'> +1.3613235e+00 </wgt>
<wgt id='1061'> +1.3599915e+00 </wgt>
<wgt id='1062'> +1.3623231e+00 </wgt>
<wgt id='1063'> +1.3632581e+00 </wgt>
<wgt id='1064'> +1.3576461e+00 </wgt>
<wgt id='1065'> +1.3588599e+00 </wgt>
<wgt id='1066'> +1.3564275e+00 </wgt>
<wgt id='1067'> +1.3676125e+00 </wgt>
<wgt id='1068'> +1.3584673e+00 </wgt>
<wgt id='1069'> +1.3585650e+00 </wgt>
<wgt id='1070'> +1.3553134e+00 </wgt>
<wgt id='1071'> +1.3583228e+00 </wgt>
<wgt id='1072'> +1.3623160e+00 </wgt>
<wgt id='1073'> +1.3525825e+00 </wgt>
<wgt id='1074'> +1.3575985e+00 </wgt>
<wgt id='1075'> +1.3604706e+00 </wgt>
<wgt id='1076'> +1.3601587e+00 </wgt>
<wgt id='1077'> +1.3660346e+00 </wgt>
<wgt id='1078'> +1.3547162e+00 </wgt>
<wgt id='1079'> +1.3681897e+00 </wgt>
<wgt id='1080'> +1.3596546e+00 </wgt>
<wgt id='1081'> +1.3638509e+00 </wgt>
<wgt id='1082'> +1.3612832e+00 </wgt>
<wgt id='1083'> +1.3533283e+00 </wgt>
<wgt id='1084'> +1.3512857e+00 </wgt>
<wgt id='1085'> +1.3589194e+00 </wgt>
<wgt id='1086'> +1.3550834e+00 </wgt>
<wgt id='1087'> +1.3569608e+00 </wgt>
<wgt id='1088'> +1.3585792e+00 </wgt>
<wgt id='1089'> +1.3604645e+00 </wgt>
<wgt id='1090'> +1.3610620e+00 </wgt>
<wgt id='1091'> +1.3565971e+00 </wgt>
<wgt id='1092'> +1.3538036e+00 </wgt>
<wgt id='1093'> +1.3572716e+00 </wgt>
<wgt id='1094'> +1.3602494e+00 </wgt>
<wgt id='1095'> +1.3538988e+00 </wgt>
<wgt id='1096'> +1.3544640e+00 </wgt>
<wgt id='1097'> +1.3581572e+00 </wgt>
<wgt id='1098'> +1.3571476e+00 </wgt>
<wgt id='1099'> +1.3562573e+00 </wgt>
<wgt id='1100'> +1.3597463e+00 </wgt>
<wgt id='1101'> +1.3607326e+00 </wgt>
<wgt id='1102'> +1.3619467e+00 </wgt>
<wgt id='1103'> +1.3625234e+00 </wgt>
<wgt id='1104'> +1.3562982e+00 </wgt>
<wgt id='1105'> +1.3591918e+00 </wgt>
<wgt id='1106'> +1.3600725e+00 </wgt>
<wgt id='1107'> +1.3587536e+00 </wgt>
<wgt id='1108'> +1.3608339e+00 </wgt>
<wgt id='1109'> +1.3615475e+00 </wgt>
<wgt id='1110'> +1.3605258e+00 </wgt>
<wgt id='1111'> +1.3559042e+00 </wgt>
<wgt id='1112'> +1.3569839e+00 </wgt>
<wgt id='1113'> +1.3620684e+00 </wgt>
<wgt id='1114'> +1.3592198e+00 </wgt>
<wgt id='1115'> +1.3600652e+00 </wgt>
<wgt id='1116'> +1.3576943e+00 </wgt>
<wgt id='1117'> +1.3577673e+00 </wgt>
<wgt id='1118'> +1.3607627e+00 </wgt>
<wgt id='1119'> +1.3592629e+00 </wgt>
<wgt id='1120'> +1.3575933e+00 </wgt>
<wgt id='1121'> +1.3579586e+00 </wgt>
<wgt id='1122'> +1.3561159e+00 </wgt>
<wgt id='1123'> +1.3581391e+00 </wgt>
<wgt id='1124'> +1.3578839e+00 </wgt>
<wgt id='1125'> +1.3590433e+00 </wgt>
<wgt id='1126'> +1.3572240e+00 </wgt>
<wgt id='1127'> +1.3575450e+00 </wgt>
<wgt id='1128'> +1.3578239e+00 </wgt>
<wgt id='1129'> +1.3586917e+00 </wgt>
<wgt id='1130'> +1.3590319e+00 </wgt>
<wgt id='1131'> +1.3605073e+00 </wgt>
<wgt id='1132'> +1.3576786e+00 </wgt>
<wgt id='1133'> +1.3575799e+00 </wgt>
<wgt id='1134'> +1.3579676e+00 </wgt>
<wgt id='1135'> +1.3592354e+00 </wgt>
<wgt id='1136'> +1.3596003e+00 </wgt>
<wgt id='1137'> +1.3593253e+00 </wgt>
<wgt id='1138'> +1.3590014e+00 </wgt>
<wgt id='1139'> +1.3577944e+00 </wgt>
<wgt id='1140'> +1.3581765e+00 </wgt>
<wgt id='1141'> +1.3580779e+00 </wgt>
<wgt id='1142'> +1.3583005e+00 </wgt>
<wgt id='1143'> +1.3583690e+00 </wgt>
<wgt id='1144'> +1.3575630e+00 </wgt>
<wgt id='1145'> +1.3580557e+00 </wgt>
<wgt id='1146'> +1.3585162e+00 </wgt>
<wgt id='1147'> +1.3593073e+00 </wgt>
<wgt id='1148'> +1.3581722e+00 </wgt>
<wgt id='1149'> +1.3829992e+00 </wgt>
<wgt id='1150'> +1.3904784e+00 </wgt>
<wgt id='1151'> +1.4052989e+00 </wgt>
<wgt id='1152'> +1.3824347e+00 </wgt>
<wgt id='1153'> +1.3841625e+00 </wgt>
<wgt id='1154'> +1.4049204e+00 </wgt>
<wgt id='1155'> +1.3891619e+00 </wgt>
<wgt id='1156'> +1.4097709e+00 </wgt>
<wgt id='1157'> +1.3777858e+00 </wgt>
<wgt id='1158'> +1.4248484e+00 </wgt>
<wgt id='1159'> +1.3130894e+00 </wgt>
<wgt id='1160'> +1.3614604e+00 </wgt>
<wgt id='1161'> +1.3846380e+00 </wgt>
<wgt id='1162'> +1.3471817e+00 </wgt>
<wgt id='1163'> +1.3596825e+00 </wgt>
<wgt id='1164'> +1.4217033e+00 </wgt>
<wgt id='1165'> +1.3856022e+00 </wgt>
<wgt id='1166'> +1.4025870e+00 </wgt>
<wgt id='1167'> +1.4044704e+00 </wgt>
<wgt id='1168'> +1.3858952e+00 </wgt>
<wgt id='1169'> +1.3781326e+00 </wgt>
<wgt id='1170'> +1.3943447e+00 </wgt>
<wgt id='1171'> +1.4004454e+00 </wgt>
<wgt id='1172'> +1.4013153e+00 </wgt>
<wgt id='1173'> +1.3578923e+00 </wgt>
<wgt id='1174'> +1.3954909e+00 </wgt>
<wgt id='1175'> +1.3741858e+00 </wgt>
<wgt id='1176'> +1.3372657e+00 </wgt>
<wgt id='1177'> +1.4110298e+00 </wgt>
<wgt id='1178'> +1.3745596e+00 </wgt>
<wgt id='1179'> +1.4190016e+00 </wgt>
<wgt id='1180'> +1.4101300e+00 </wgt>
<wgt id='1181'> +1.4069837e+00 </wgt>
<wgt id='1182'> +1.4143067e+00 </wgt>
<wgt id='1183'> +1.3635047e+00 </wgt>
<wgt id='1184'> +1.3708809e+00 </wgt>
<wgt id='1185'> +1.3712017e+00 </wgt>
<wgt id='1186'> +1.3890266e+00 </wgt>
<wgt id='1187'> +1.3660468e+00 </wgt>
<wgt id='1188'> +1.3918303e+00 </wgt>
<wgt id='1189'> +1.3501652e+00 </wgt>
<wgt id='1190'> +1.4051966e+00 </wgt>
<wgt id='1191'> +1.3855059e+00 </wgt>
<wgt id='1192'> +1.3929607e+00 </wgt>
<wgt id='1193'> +1.3848146e+00 </wgt>
<wgt id='1194'> +1.3893608e+00 </wgt>
<wgt id='1195'> +1.3636945e+00 </wgt>
<wgt id='1196'> +1.3726152e+00 </wgt>
<wgt id='1197'> +1.3605499e+00 </wgt>
<wgt id='1198'> +1.4204797e+00 </wgt>
<wgt id='1199'> +1.3761143e+00 </wgt>
<wgt id='1200'> +1.3895832e+00 </wgt>
<wgt id='1201'> +1.4020450e+00 </wgt>
<wgt id='1202'> +1.3843404e+00 </wgt>
<wgt id='1203'> +1.4034696e+00 </wgt>
<wgt id='1204'> +1.3460119e+00 </wgt>
<wgt id='1205'> +1.3877705e+00 </wgt>
<wgt id='1206'> +1.3943122e+00 </wgt>
<wgt id='1207'> +1.4090006e+00 </wgt>
<wgt id='1208'> +1.4074435e+00 </wgt>
<wgt id='1209'> +1.4094585e+00 </wgt>
<wgt id='1210'> +1.3721262e+00 </wgt>
<wgt id='1211'> +1.3877716e+00 </wgt>
<wgt id='1212'> +1.3402854e+00 </wgt>
<wgt id='1213'> +1.3617176e+00 </wgt>
<wgt id='1214'> +1.3860495e+00 </wgt>
<wgt id='1215'> +1.3766829e+00 </wgt>
<wgt id='1216'> +1.3576473e+00 </wgt>
<wgt id='1217'> +1.3981031e+00 </wgt>
<wgt id='1218'> +1.3717757e+00 </wgt>
<wgt id='1219'> +1.3636833e+00 </wgt>
<wgt id='1220'> +1.4408689e+00 </wgt>
<wgt id='1221'> +1.3841112e+00 </wgt>
<wgt id='1222'> +1.3766430e+00 </wgt>
<wgt id='1223'> +1.3601141e+00 </wgt>
<wgt id='1224'> +1.3783934e+00 </wgt>
<wgt id='1225'> +1.3950262e+00 </wgt>
<wgt id='1226'> +1.3501357e+00 </wgt>
<wgt id='1227'> +1.4403276e+00 </wgt>
<wgt id='1228'> +1.3859949e+00 </wgt>
<wgt id='1229'> +1.3326661e+00 </wgt>
<wgt id='1230'> +1.3749295e+00 </wgt>
<wgt id='1231'> +1.3856022e+00 </wgt>
<wgt id='1232'> +1.2891880e+00 </wgt>
<wgt id='1233'> +1.3843124e+00 </wgt>
<wgt id='1234'> +1.4237814e+00 </wgt>
<wgt id='1235'> +1.3981687e+00 </wgt>
<wgt id='1236'> +1.3974244e+00 </wgt>
<wgt id='1237'> +1.3757974e+00 </wgt>
<wgt id='1238'> +1.2584949e+00 </wgt>
<wgt id='1239'> +1.3903038e+00 </wgt>
<wgt id='1240'> +1.4095193e+00 </wgt>
<wgt id='1241'> +1.3841645e+00 </wgt>
<wgt id='1242'> +1.3865509e+00 </wgt>
<wgt id='1243'> +1.3897974e+00 </wgt>
<wgt id='1244'> +1.3912497e+00 </wgt>
<wgt id='1245'> +1.4231876e+00 </wgt>
<wgt id='1246'> +1.3432064e+00 </wgt>
<wgt id='1247'> +1.3718005e+00 </wgt>
<wgt id='1248'> +1.3436746e+00 </wgt>
<wgt id='1249'> +1.4151400e+00 </wgt>
<wgt id='1250'> +1.3124876e+00 </wgt>
<wgt id='1251'> +1.3062468e+00 </wgt>
<wgt id='1252'> +1.3340664e+00 </wgt>
<wgt id='1253'> +1.3295814e+00 </wgt>
<wgt id='1254'> +1.1416499e+00 </wgt>
<wgt id='1255'> +1.3243462e+00 </wgt>
<wgt id='1256'> +1.3218152e+00 </wgt>
<wgt id='1257'> +1.3257990e+00 </wgt>
<wgt id='1258'> +1.3296217e+00 </wgt>
<wgt id='1259'> +1.3216941e+00 </wgt>
<wgt id='1260'> +1.3251330e+00 </wgt>
<wgt id='1261'> +1.3232768e+00 </wgt>
<wgt id='1262'> +1.3252038e+00 </wgt>
<wgt id='1263'> +1.3237934e+00 </wgt>
<wgt id='1264'> +1.3330271e+00 </wgt>
<wgt id='1265'> +1.3183073e+00 </wgt>
<wgt id='1266'> +1.3247855e+00 </wgt>
<wgt id='1267'> +1.3238974e+00 </wgt>
<wgt id='1268'> +1.3301029e+00 </wgt>
<wgt id='1269'> +1.3185269e+00 </wgt>
<wgt id='1270'> +1.3196150e+00 </wgt>
<wgt id='1271'> +1.3280989e+00 </wgt>
<wgt id='1272'> +1.3366205e+00 </wgt>
<wgt id='1273'> +1.3137541e+00 </wgt>
<wgt id='1274'> +1.3209792e+00 </wgt>
<wgt id='1275'> +1.3278542e+00 </wgt>
<wgt id='1276'> +1.3219460e+00 </wgt>
<wgt id='1277'> +1.3255232e+00 </wgt>
<wgt id='1278'> +1.3106588e+00 </wgt>
<wgt id='1279'> +1.3346404e+00 </wgt>
<wgt id='1280'> +1.3247974e+00 </wgt>
<wgt id='1281'> +1.3191332e+00 </wgt>
<wgt id='1282'> +1.3280696e+00 </wgt>
<wgt id='1283'> +1.3153137e+00 </wgt>
<wgt id='1284'> +1.3127762e+00 </wgt>
<wgt id='1285'> +1.3283593e+00 </wgt>
<wgt id='1286'> +1.3243481e+00 </wgt>
<wgt id='1287'> +1.3241462e+00 </wgt>
<wgt id='1288'> +1.3234506e+00 </wgt>
<wgt id='1289'> +1.3245218e+00 </wgt>
<wgt id='1290'> +1.3278932e+00 </wgt>
<wgt id='1291'> +1.3231377e+00 </wgt>
<wgt id='1292'> +1.3284467e+00 </wgt>
<wgt id='1293'> +1.3165871e+00 </wgt>
<wgt id='1294'> +1.3159407e+00 </wgt>
<wgt id='1295'> +1.3256165e+00 </wgt>
<wgt id='1296'> +1.3484469e+00 </wgt>
<wgt id='1297'> +1.3515690e+00 </wgt>
<wgt id='1298'> +1.3458600e+00 </wgt>
<wgt id='1299'> +1.3525551e+00 </wgt>
<wgt id='1300'> +1.3438665e+00 </wgt>
<wgt id='1301'> +1.3473461e+00 </wgt>
<wgt id='1302'> +1.3500310e+00 </wgt>
<wgt id='1303'> +1.3558427e+00 </wgt>
<wgt id='1304'> +1.3434908e+00 </wgt>
<wgt id='1305'> +1.3489243e+00 </wgt>
<wgt id='1306'> +1.3478206e+00 </wgt>
<wgt id='1307'> +1.3506895e+00 </wgt>
<wgt id='1308'> +1.3470561e+00 </wgt>
<wgt id='1309'> +1.3435396e+00 </wgt>
<wgt id='1310'> +1.3550043e+00 </wgt>
<wgt id='1311'> +1.3511757e+00 </wgt>
<wgt id='1312'> +1.3474899e+00 </wgt>
<wgt id='1313'> +1.3505085e+00 </wgt>
<wgt id='1314'> +1.3451413e+00 </wgt>
<wgt id='1315'> +1.3373849e+00 </wgt>
<wgt id='1316'> +1.3576134e+00 </wgt>
<wgt id='1317'> +1.3384465e+00 </wgt>
<wgt id='1318'> +1.3659992e+00 </wgt>
<wgt id='1319'> +1.3516235e+00 </wgt>
<wgt id='1320'> +1.3454214e+00 </wgt>
<wgt id='1321'> +1.3398287e+00 </wgt>
<wgt id='1322'> +1.3522507e+00 </wgt>
<wgt id='1323'> +1.3380074e+00 </wgt>
<wgt id='1324'> +1.3404199e+00 </wgt>
<wgt id='1325'> +1.3482043e+00 </wgt>
<wgt id='1326'> +1.3447306e+00 </wgt>
<wgt id='1327'> +1.3451452e+00 </wgt>
<wgt id='1328'> +1.3497536e+00 </wgt>
<wgt id='1329'> +1.3460659e+00 </wgt>
<wgt id='1330'> +1.3499439e+00 </wgt>
<wgt id='1331'> +1.3480768e+00 </wgt>
<wgt id='1332'> +1.3470020e+00 </wgt>
<wgt id='1333'> +1.3568203e+00 </wgt>
<wgt id='1334'> +1.3351762e+00 </wgt>
<wgt id='1335'> +1.3545120e+00 </wgt>
<wgt id='1336'> +1.3461408e+00 </wgt>
<wgt id='1337'> +1.3484469e+00 </wgt>
<wgt id='1338'> +1.3468416e+00 </wgt>
<wgt id='1339'> +1.3475252e+00 </wgt>
<wgt id='1340'> +1.3481206e+00 </wgt>
<wgt id='1341'> +1.3490788e+00 </wgt>
<wgt id='1342'> +1.3494860e+00 </wgt>
<wgt id='1343'> +1.3497729e+00 </wgt>
<wgt id='1344'> +1.3505442e+00 </wgt>
<wgt id='1345'> +1.3534880e+00 </wgt>
<wgt id='1346'> +1.3476718e+00 </wgt>
<wgt id='1347'> +1.3466412e+00 </wgt>
<wgt id='1348'> +1.3534303e+00 </wgt>
<wgt id='1349'> +1.3559702e+00 </wgt>
<wgt id='1350'> +1.3459901e+00 </wgt>
<wgt id='1351'> +1.3504784e+00 </wgt>
<wgt id='1352'> +1.3507056e+00 </wgt>
<wgt id='1353'> +1.3541989e+00 </wgt>
<wgt id='1354'> +1.3479472e+00 </wgt>
<wgt id='1355'> +1.3563672e+00 </wgt>
<wgt id='1356'> +1.3459137e+00 </wgt>
<wgt id='1357'> +1.3530575e+00 </wgt>
<wgt id='1358'> +1.3490157e+00 </wgt>
<wgt id='1359'> +1.3492851e+00 </wgt>
<wgt id='1360'> +1.3540163e+00 </wgt>
<wgt id='1361'> +1.3556251e+00 </wgt>
<wgt id='1362'> +1.3472285e+00 </wgt>
<wgt id='1363'> +1.3596806e+00 </wgt>
<wgt id='1364'> +1.3375574e+00 </wgt>
<wgt id='1365'> +1.3490461e+00 </wgt>
<wgt id='1366'> +1.3505206e+00 </wgt>
<wgt id='1367'> +1.3418688e+00 </wgt>
<wgt id='1368'> +1.3541958e+00 </wgt>
<wgt id='1369'> +1.3439089e+00 </wgt>
<wgt id='1370'> +1.3546493e+00 </wgt>
<wgt id='1371'> +1.3452953e+00 </wgt>
<wgt id='1372'> +1.3449229e+00 </wgt>
<wgt id='1373'> +1.3549680e+00 </wgt>
<wgt id='1374'> +1.3482887e+00 </wgt>
<wgt id='1375'> +1.3461927e+00 </wgt>
<wgt id='1376'> +1.3513116e+00 </wgt>
<wgt id='1377'> +1.3511239e+00 </wgt>
<wgt id='1378'> +1.3501389e+00 </wgt>
<wgt id='1379'> +1.3482956e+00 </wgt>
<wgt id='1380'> +1.3500015e+00 </wgt>
<wgt id='1381'> +1.3440098e+00 </wgt>
<wgt id='1382'> +1.3489285e+00 </wgt>
<wgt id='1383'> +1.3487493e+00 </wgt>
<wgt id='1384'> +1.3527387e+00 </wgt>
<wgt id='1385'> +1.3505442e+00 </wgt>
<wgt id='1386'> +1.3482815e+00 </wgt>
<wgt id='1387'> +1.3491807e+00 </wgt>
<wgt id='1388'> +1.3499520e+00 </wgt>
<wgt id='1389'> +1.3510215e+00 </wgt>
<wgt id='1390'> +1.3514773e+00 </wgt>
<wgt id='1391'> +1.3517583e+00 </wgt>
<wgt id='1392'> +1.3781676e+00 </wgt>
<wgt id='1393'> +1.3765433e+00 </wgt>
<wgt id='1394'> +1.3798938e+00 </wgt>
<wgt id='1395'> +1.3798323e+00 </wgt>
<wgt id='1396'> +1.3769454e+00 </wgt>
<wgt id='1397'> +1.3803897e+00 </wgt>
<wgt id='1398'> +1.3760114e+00 </wgt>
<wgt id='1399'> +1.3740784e+00 </wgt>
<wgt id='1400'> +1.3832232e+00 </wgt>
<wgt id='1401'> +1.3771079e+00 </wgt>
<wgt id='1402'> +1.3794860e+00 </wgt>
<wgt id='1403'> +1.3764837e+00 </wgt>
<wgt id='1404'> +1.3814736e+00 </wgt>
<wgt id='1405'> +1.3824566e+00 </wgt>
<wgt id='1406'> +1.3721842e+00 </wgt>
<wgt id='1407'> +1.3749836e+00 </wgt>
<wgt id='1408'> +1.3803565e+00 </wgt>
<wgt id='1409'> +1.3778090e+00 </wgt>
<wgt id='1410'> +1.3785601e+00 </wgt>
<wgt id='1411'> +1.3713050e+00 </wgt>
<wgt id='1412'> +1.3833623e+00 </wgt>
<wgt id='1413'> +1.3894114e+00 </wgt>
<wgt id='1414'> +1.3660658e+00 </wgt>
<wgt id='1415'> +1.3853945e+00 </wgt>
<wgt id='1416'> +1.3710488e+00 </wgt>
<wgt id='1417'> +1.3788009e+00 </wgt>
<wgt id='1418'> +1.3773478e+00 </wgt>
<wgt id='1419'> +1.3718406e+00 </wgt>
<wgt id='1420'> +1.3796950e+00 </wgt>
<wgt id='1421'> +1.3845502e+00 </wgt>
<wgt id='1422'> +1.3706094e+00 </wgt>
<wgt id='1423'> +1.3919446e+00 </wgt>
<wgt id='1424'> +1.3674682e+00 </wgt>
<wgt id='1425'> +1.3797093e+00 </wgt>
<wgt id='1426'> +1.3749081e+00 </wgt>
<wgt id='1427'> +1.3796285e+00 </wgt>
<wgt id='1428'> +1.3738580e+00 </wgt>
<wgt id='1429'> +1.3753224e+00 </wgt>
<wgt id='1430'> +1.3770521e+00 </wgt>
<wgt id='1431'> +1.3736133e+00 </wgt>
<wgt id='1432'> +1.3821214e+00 </wgt>
<wgt id='1433'> +1.3567767e+00 </wgt>
<wgt id='1434'> +1.4050657e+00 </wgt>
<wgt id='1435'> +1.3761519e+00 </wgt>
<wgt id='1436'> +1.3749245e+00 </wgt>
<wgt id='1437'> +1.3732757e+00 </wgt>
<wgt id='1438'> +1.3915089e+00 </wgt>
<wgt id='1439'> +1.3828516e+00 </wgt>
<wgt id='1440'> +1.3655375e+00 </wgt>
<wgt id='1441'> +1.3792360e+00 </wgt>
<wgt id='1442'> +1.3760966e+00 </wgt>
<wgt id='1443'> +1.3686288e+00 </wgt>
<wgt id='1444'> +1.3670012e+00 </wgt>
<wgt id='1445'> +1.3704076e+00 </wgt>
<wgt id='1446'> +1.3703696e+00 </wgt>
<wgt id='1447'> +1.3674967e+00 </wgt>
<wgt id='1448'> +1.3709826e+00 </wgt>
<wgt id='1449'> +1.3665296e+00 </wgt>
<wgt id='1450'> +1.3644187e+00 </wgt>
<wgt id='1451'> +1.3733444e+00 </wgt>
<wgt id='1452'> +1.3678649e+00 </wgt>
<wgt id='1453'> +1.3694162e+00 </wgt>
<wgt id='1454'> +1.3672174e+00 </wgt>
<wgt id='1455'> +1.3717284e+00 </wgt>
<wgt id='1456'> +1.3735561e+00 </wgt>
<wgt id='1457'> +1.3598191e+00 </wgt>
<wgt id='1458'> +1.3642478e+00 </wgt>
<wgt id='1459'> +1.3711310e+00 </wgt>
<wgt id='1460'> +1.3664672e+00 </wgt>
<wgt id='1461'> +1.3711815e+00 </wgt>
<wgt id='1462'> +1.3626289e+00 </wgt>
<wgt id='1463'> +1.3737955e+00 </wgt>
<wgt id='1464'> +1.3781224e+00 </wgt>
<wgt id='1465'> +1.3560174e+00 </wgt>
<wgt id='1466'> +1.3773171e+00 </wgt>
<wgt id='1467'> +1.3630424e+00 </wgt>
<wgt id='1468'> +1.3646909e+00 </wgt>
<wgt id='1469'> +1.3727550e+00 </wgt>
<wgt id='1470'> +1.3627369e+00 </wgt>
<wgt id='1471'> +1.3699738e+00 </wgt>
<wgt id='1472'> +1.3730692e+00 </wgt>
<wgt id='1473'> +1.3630585e+00 </wgt>
<wgt id='1474'> +1.3793472e+00 </wgt>
<wgt id='1475'> +1.3558381e+00 </wgt>
<wgt id='1476'> +1.3689629e+00 </wgt>
<wgt id='1477'> +1.3669379e+00 </wgt>
<wgt id='1478'> +1.3702107e+00 </wgt>
<wgt id='1479'> +1.3641315e+00 </wgt>
<wgt id='1480'> +1.3677788e+00 </wgt>
<wgt id='1481'> +1.3680110e+00 </wgt>
<wgt id='1482'> +1.3639613e+00 </wgt>
<wgt id='1483'> +1.3733949e+00 </wgt>
<wgt id='1484'> +1.3471444e+00 </wgt>
<wgt id='1485'> +1.3942196e+00 </wgt>
<wgt id='1486'> +1.3718314e+00 </wgt>
<wgt id='1487'> +1.3638107e+00 </wgt>
<wgt id='1488'> +1.3630098e+00 </wgt>
<wgt id='1489'> +1.3831416e+00 </wgt>
<wgt id='1490'> +1.3741808e+00 </wgt>
<wgt id='1491'> +1.3545178e+00 </wgt>
<wgt id='1492'> +1.3701123e+00 </wgt>
<wgt id='1493'> +1.3657403e+00 </wgt>
<wgt id='1494'> +1.3222832e+00 </wgt>
<wgt id='1495'> +1.3088830e+00 </wgt>
<wgt id='1496'> +1.3142940e+00 </wgt>
<wgt id='1497'> +1.3186262e+00 </wgt>
<wgt id='1498'> +1.3265869e+00 </wgt>
<wgt id='1499'> +1.3225411e+00 </wgt>
<wgt id='1500'> +1.3143003e+00 </wgt>
<wgt id='1501'> +1.3164887e+00 </wgt>
<wgt id='1502'> +1.3183415e+00 </wgt>
<wgt id='1503'> +1.3198390e+00 </wgt>
<wgt id='1504'> +1.3214037e+00 </wgt>
<wgt id='1505'> +1.3240712e+00 </wgt>
<wgt id='1506'> +1.3252164e+00 </wgt>
<wgt id='1507'> +1.3263008e+00 </wgt>
<wgt id='1508'> +1.3225411e+00 </wgt>
<wgt id='1509'> +1.3225812e+00 </wgt>
<wgt id='1510'> +1.3225727e+00 </wgt>
<wgt id='1511'> +1.3225545e+00 </wgt>
<wgt id='1512'> +1.3228298e+00 </wgt>
<wgt id='1513'> +1.3408063e+00 </wgt>
<wgt id='1514'> +1.3388122e+00 </wgt>
<wgt id='1515'> +1.3434585e+00 </wgt>
<wgt id='1516'> +1.3412733e+00 </wgt>
<wgt id='1517'> +1.3404044e+00 </wgt>
<wgt id='1518'> +1.3443597e+00 </wgt>
<wgt id='1519'> +1.3393888e+00 </wgt>
<wgt id='1520'> +1.3374984e+00 </wgt>
<wgt id='1521'> +1.3441549e+00 </wgt>
<wgt id='1522'> +1.3412017e+00 </wgt>
<wgt id='1523'> +1.3404662e+00 </wgt>
<wgt id='1524'> +1.3427424e+00 </wgt>
<wgt id='1525'> +1.3400160e+00 </wgt>
<wgt id='1526'> +1.3445787e+00 </wgt>
<wgt id='1527'> +1.3362478e+00 </wgt>
<wgt id='1528'> +1.3435709e+00 </wgt>
<wgt id='1529'> +1.3378123e+00 </wgt>
<wgt id='1530'> +1.3436582e+00 </wgt>
<wgt id='1531'> +1.3392170e+00 </wgt>
<wgt id='1532'> +1.3423648e+00 </wgt>
<wgt id='1533'> +1.3387566e+00 </wgt>
<wgt id='1534'> +1.3264914e+00 </wgt>
<wgt id='1535'> +1.3507070e+00 </wgt>
<wgt id='1536'> +1.3386850e+00 </wgt>
<wgt id='1537'> +1.3427058e+00 </wgt>
<wgt id='1538'> +1.3401837e+00 </wgt>
<wgt id='1539'> +1.3424037e+00 </wgt>
<wgt id='1540'> +1.3369292e+00 </wgt>
<wgt id='1541'> +1.3410673e+00 </wgt>
<wgt id='1542'> +1.3359644e+00 </wgt>
<wgt id='1543'> +1.3545672e+00 </wgt>
<wgt id='1544'> +1.3445696e+00 </wgt>
<wgt id='1545'> +1.3324035e+00 </wgt>
<wgt id='1546'> +1.3383213e+00 </wgt>
<wgt id='1547'> +1.3432334e+00 </wgt>
<wgt id='1548'> +1.3376834e+00 </wgt>
<wgt id='1549'> +1.3410399e+00 </wgt>
<wgt id='1550'> +1.3412218e+00 </wgt>
<wgt id='1551'> +1.3311589e+00 </wgt>
<wgt id='1552'> +1.3356943e+00 </wgt>
<wgt id='1553'> +1.3441015e+00 </wgt>
<wgt id='1554'> +1.3545562e+00 </wgt>
<wgt id='1555'> +1.3171907e+00 </wgt>
<wgt id='1556'> +1.3418126e+00 </wgt>
<wgt id='1557'> +1.3337481e+00 </wgt>
<wgt id='1558'> +1.3283546e+00 </wgt>
<wgt id='1559'> +1.3489893e+00 </wgt>
<wgt id='1560'> +1.3517932e+00 </wgt>
<wgt id='1561'> +1.3357302e+00 </wgt>
<wgt id='1562'> +1.3350007e+00 </wgt>
<wgt id='1563'> +1.3423608e+00 </wgt>
<wgt id='1564'> +1.3408063e+00 </wgt>
<wgt id='1565'> +1.3372551e+00 </wgt>
<wgt id='1566'> +1.3432955e+00 </wgt>
<wgt id='1567'> +1.3394941e+00 </wgt>
<wgt id='1568'> +1.3336885e+00 </wgt>
<wgt id='1569'> +1.3357711e+00 </wgt>
<wgt id='1570'> +1.3368081e+00 </wgt>
<wgt id='1571'> +1.3371940e+00 </wgt>
<wgt id='1572'> +1.3387958e+00 </wgt>
<wgt id='1573'> +1.3400204e+00 </wgt>
<wgt id='1574'> +1.3391979e+00 </wgt>
<wgt id='1575'> +1.3396419e+00 </wgt>
<wgt id='1576'> +1.3394941e+00 </wgt>
<wgt id='1577'> +1.3392481e+00 </wgt>
<wgt id='1578'> +1.3393004e+00 </wgt>
<wgt id='1579'> +1.3397028e+00 </wgt>
<wgt id='1580'> +1.3398143e+00 </wgt>
<wgt id='1581'> +1.3273380e+00 </wgt>
<wgt id='1582'> +1.3280102e+00 </wgt>
<wgt id='1583'> +1.3418432e+00 </wgt>
<wgt id='1584'> +1.3181878e+00 </wgt>
<wgt id='1585'> +1.3306810e+00 </wgt>
<wgt id='1586'> +1.3090363e+00 </wgt>
<wgt id='1587'> +1.3183970e+00 </wgt>
<wgt id='1588'> +1.3337456e+00 </wgt>
<wgt id='1589'> +1.3264032e+00 </wgt>
<wgt id='1590'> +1.3261122e+00 </wgt>
<wgt id='1591'> +1.3249045e+00 </wgt>
<wgt id='1592'> +1.3349548e+00 </wgt>
<wgt id='1593'> +1.3264867e+00 </wgt>
<wgt id='1594'> +1.3306862e+00 </wgt>
<wgt id='1595'> +1.3263342e+00 </wgt>
<wgt id='1596'> +1.3313658e+00 </wgt>
<wgt id='1597'> +1.3243656e+00 </wgt>
<wgt id='1598'> +1.3300773e+00 </wgt>
<wgt id='1599'> +1.3352804e+00 </wgt>
<wgt id='1600'> +1.3307080e+00 </wgt>
<wgt id='1601'> +1.3283537e+00 </wgt>
<wgt id='1602'> +1.3290844e+00 </wgt>
<wgt id='1603'> +1.3285421e+00 </wgt>
<wgt id='1604'> +1.3299900e+00 </wgt>
<wgt id='1605'> +1.3249606e+00 </wgt>
<wgt id='1606'> +1.3266616e+00 </wgt>
<wgt id='1607'> +1.3291388e+00 </wgt>
<wgt id='1608'> +1.3429502e+00 </wgt>
<wgt id='1609'> +1.3281563e+00 </wgt>
<wgt id='1610'> +1.3255493e+00 </wgt>
<wgt id='1611'> +1.3332616e+00 </wgt>
<wgt id='1612'> +1.3510019e+00 </wgt>
<wgt id='1613'> +1.3504534e+00 </wgt>
<wgt id='1614'> +1.3524436e+00 </wgt>
<wgt id='1615'> +1.3529330e+00 </wgt>
<wgt id='1616'> +1.3502114e+00 </wgt>
<wgt id='1617'> +1.3492820e+00 </wgt>
<wgt id='1618'> +1.3505207e+00 </wgt>
<wgt id='1619'> +1.3445393e+00 </wgt>
<wgt id='1620'> +1.3453225e+00 </wgt>
<wgt id='1621'> +1.3526546e+00 </wgt>
<wgt id='1622'> +1.3520343e+00 </wgt>
<wgt id='1623'> +1.3460751e+00 </wgt>
<wgt id='1624'> +1.3502863e+00 </wgt>
<wgt id='1625'> +1.3520720e+00 </wgt>
<wgt id='1626'> +1.3551108e+00 </wgt>
<wgt id='1627'> +1.3553678e+00 </wgt>
<wgt id='1628'> +1.3528470e+00 </wgt>
<wgt id='1629'> +1.3504374e+00 </wgt>
<wgt id='1630'> +1.3532273e+00 </wgt>
<wgt id='1631'> +1.3477833e+00 </wgt>
<wgt id='1632'> +1.3538129e+00 </wgt>
<wgt id='1633'> +1.3494224e+00 </wgt>
<wgt id='1634'> +1.3566853e+00 </wgt>
<wgt id='1635'> +1.3478477e+00 </wgt>
<wgt id='1636'> +1.3590137e+00 </wgt>
<wgt id='1637'> +1.3542071e+00 </wgt>
<wgt id='1638'> +1.3503359e+00 </wgt>
<wgt id='1639'> +1.3564454e+00 </wgt>
<wgt id='1640'> +1.3540090e+00 </wgt>
<wgt id='1641'> +1.3348387e+00 </wgt>
<wgt id='1642'> +1.3496769e+00 </wgt>
<wgt id='1643'> +1.3501654e+00 </wgt>
<wgt id='1644'> +1.3483572e+00 </wgt>
<wgt id='1645'> +1.3474592e+00 </wgt>
<wgt id='1646'> +1.3508874e+00 </wgt>
<wgt id='1647'> +1.3531897e+00 </wgt>
<wgt id='1648'> +1.3504001e+00 </wgt>
<wgt id='1649'> +1.3544405e+00 </wgt>
<wgt id='1650'> +1.3498508e+00 </wgt>
<wgt id='1651'> +1.3522863e+00 </wgt>
<wgt id='1652'> +1.3504409e+00 </wgt>
<wgt id='1653'> +1.3494194e+00 </wgt>
<wgt id='1654'> +1.3496229e+00 </wgt>
<wgt id='1655'> +1.3504351e+00 </wgt>
<wgt id='1656'> +1.3546659e+00 </wgt>
<wgt id='1657'> +1.3472537e+00 </wgt>
<wgt id='1658'> +1.3538199e+00 </wgt>
<wgt id='1659'> +1.3560326e+00 </wgt>
<wgt id='1660'> +1.3491255e+00 </wgt>
<wgt id='1661'> +1.3555446e+00 </wgt>
<wgt id='1662'> +1.3528753e+00 </wgt>
<wgt id='1663'> +1.3524232e+00 </wgt>
<wgt id='1664'> +1.3492638e+00 </wgt>
<wgt id='1665'> +1.3487486e+00 </wgt>
<wgt id='1666'> +1.3511571e+00 </wgt>
<wgt id='1667'> +1.3473501e+00 </wgt>
<wgt id='1668'> +1.3534237e+00 </wgt>
<wgt id='1669'> +1.3489998e+00 </wgt>
<wgt id='1670'> +1.3510514e+00 </wgt>
<wgt id='1671'> +1.3515977e+00 </wgt>
<wgt id='1672'> +1.3514454e+00 </wgt>
<wgt id='1673'> +1.3500322e+00 </wgt>
<wgt id='1674'> +1.3529676e+00 </wgt>
<wgt id='1675'> +1.3517650e+00 </wgt>
<wgt id='1676'> +1.3492377e+00 </wgt>
<wgt id='1677'> +1.3518748e+00 </wgt>
<wgt id='1678'> +1.3512381e+00 </wgt>
<wgt id='1679'> +1.3517012e+00 </wgt>
<wgt id='1680'> +1.3526013e+00 </wgt>
<wgt id='1681'> +1.3497736e+00 </wgt>
<wgt id='1682'> +1.3496608e+00 </wgt>
<wgt id='1683'> +1.3486326e+00 </wgt>
<wgt id='1684'> +1.3535350e+00 </wgt>
<wgt id='1685'> +1.3487521e+00 </wgt>
<wgt id='1686'> +1.3519665e+00 </wgt>
<wgt id='1687'> +1.3504835e+00 </wgt>
<wgt id='1688'> +1.3499085e+00 </wgt>
<wgt id='1689'> +1.3519339e+00 </wgt>
<wgt id='1690'> +1.3507447e+00 </wgt>
<wgt id='1691'> +1.3522649e+00 </wgt>
<wgt id='1692'> +1.3522568e+00 </wgt>
<wgt id='1693'> +1.3502967e+00 </wgt>
<wgt id='1694'> +1.3509672e+00 </wgt>
<wgt id='1695'> +1.3503889e+00 </wgt>
<wgt id='1696'> +1.3498943e+00 </wgt>
<wgt id='1697'> +1.3511329e+00 </wgt>
<wgt id='1698'> +1.3513366e+00 </wgt>
<wgt id='1699'> +1.3500314e+00 </wgt>
<wgt id='1700'> +1.3507423e+00 </wgt>
<wgt id='1701'> +1.3511210e+00 </wgt>
<wgt id='1702'> +1.3511748e+00 </wgt>
<wgt id='1703'> +1.3526878e+00 </wgt>
<wgt id='1704'> +1.3501439e+00 </wgt>
<wgt id='1705'> +1.3501616e+00 </wgt>
<wgt id='1706'> +1.3504710e+00 </wgt>
<wgt id='1707'> +1.3503951e+00 </wgt>
<wgt id='1708'> +1.3499928e+00 </wgt>
<wgt id='1709'> +1.3526410e+00 </wgt>
<wgt id='1710'> +1.3507211e+00 </wgt>
<wgt id='1711'> +1.3503549e+00 </wgt>
<wgt id='1712'> +1.3526043e+00 </wgt>
<wgt id='1713'> +1.3290108e+00 </wgt>
<wgt id='1714'> +1.3679891e+00 </wgt>
<wgt id='1715'> +1.3965279e+00 </wgt>
<wgt id='1716'> +1.3959337e+00 </wgt>
<wgt id='1717'> +1.4161604e+00 </wgt>
<wgt id='1718'> +1.3502121e+00 </wgt>
<wgt id='1719'> +1.3758434e+00 </wgt>
<wgt id='1720'> +1.4287341e+00 </wgt>
<wgt id='1721'> +1.3660482e+00 </wgt>
<wgt id='1722'> +1.3756419e+00 </wgt>
<wgt id='1723'> +1.4270992e+00 </wgt>
<wgt id='1724'> +1.3981453e+00 </wgt>
<wgt id='1725'> +1.4020305e+00 </wgt>
<wgt id='1726'> +1.4127338e+00 </wgt>
<wgt id='1727'> +1.4003202e+00 </wgt>
<wgt id='1728'> +1.4086912e+00 </wgt>
<wgt id='1729'> +1.3872709e+00 </wgt>
<wgt id='1730'> +1.3893908e+00 </wgt>
<wgt id='1731'> +1.3181686e+00 </wgt>
<wgt id='1732'> +1.4369699e+00 </wgt>
<wgt id='1733'> +1.4182271e+00 </wgt>
<wgt id='1734'> +1.4077373e+00 </wgt>
<wgt id='1735'> +1.3096735e+00 </wgt>
<wgt id='1736'> +1.4092649e+00 </wgt>
<wgt id='1737'> +1.3807983e+00 </wgt>
<wgt id='1738'> +1.4246846e+00 </wgt>
<wgt id='1739'> +1.3971543e+00 </wgt>
<wgt id='1740'> +1.3794150e+00 </wgt>
<wgt id='1741'> +1.3882741e+00 </wgt>
<wgt id='1742'> +1.4501255e+00 </wgt>
<wgt id='1743'> +1.3526478e+00 </wgt>
<wgt id='1744'> +1.3942975e+00 </wgt>
<wgt id='1745'> +1.3377357e+00 </wgt>
<wgt id='1746'> +1.3898949e+00 </wgt>
<wgt id='1747'> +1.4051594e+00 </wgt>
<wgt id='1748'> +1.3672732e+00 </wgt>
<wgt id='1749'> +1.4327328e+00 </wgt>
<wgt id='1750'> +1.4040187e+00 </wgt>
<wgt id='1751'> +1.4124736e+00 </wgt>
<wgt id='1752'> +1.3779252e+00 </wgt>
<wgt id='1753'> +1.3724879e+00 </wgt>
<wgt id='1754'> +1.3965925e+00 </wgt>
<wgt id='1755'> +1.3990081e+00 </wgt>
<wgt id='1756'> +1.4018200e+00 </wgt>
<wgt id='1757'> +1.4034733e+00 </wgt>
<wgt id='1758'> +1.3888083e+00 </wgt>
<wgt id='1759'> +1.3704784e+00 </wgt>
<wgt id='1760'> +1.3820383e+00 </wgt>
<wgt id='1761'> +1.3937310e+00 </wgt>
<wgt id='1762'> +1.4003202e+00 </wgt>
<wgt id='1763'> +1.3775661e+00 </wgt>
<wgt id='1764'> +1.4046396e+00 </wgt>
<wgt id='1765'> +1.3980592e+00 </wgt>
<wgt id='1766'> +1.4330347e+00 </wgt>
<wgt id='1767'> +1.3830097e+00 </wgt>
<wgt id='1768'> +1.3551452e+00 </wgt>
<wgt id='1769'> +1.4005834e+00 </wgt>
<wgt id='1770'> +1.4537053e+00 </wgt>
<wgt id='1771'> +1.3894506e+00 </wgt>
<wgt id='1772'> +1.4002386e+00 </wgt>
<wgt id='1773'> +1.3987065e+00 </wgt>
<wgt id='1774'> +1.3624947e+00 </wgt>
<wgt id='1775'> +1.3842333e+00 </wgt>
<wgt id='1776'> +1.4296999e+00 </wgt>
<wgt id='1777'> +1.4424620e+00 </wgt>
<wgt id='1778'> +1.3862544e+00 </wgt>
<wgt id='1779'> +1.4044295e+00 </wgt>
<wgt id='1780'> +1.3970285e+00 </wgt>
<wgt id='1781'> +1.4135420e+00 </wgt>
<wgt id='1782'> +1.4615045e+00 </wgt>
<wgt id='1783'> +1.4044790e+00 </wgt>
<wgt id='1784'> +1.4196208e+00 </wgt>
<wgt id='1785'> +1.3999012e+00 </wgt>
<wgt id='1786'> +1.4359877e+00 </wgt>
<wgt id='1787'> +1.3875152e+00 </wgt>
<wgt id='1788'> +1.4035012e+00 </wgt>
<wgt id='1789'> +1.3929979e+00 </wgt>
<wgt id='1790'> +1.3989914e+00 </wgt>
<wgt id='1791'> +1.3125936e+00 </wgt>
<wgt id='1792'> +1.4178139e+00 </wgt>
<wgt id='1793'> +1.4339615e+00 </wgt>
<wgt id='1794'> +1.4158928e+00 </wgt>
<wgt id='1795'> +1.3171093e+00 </wgt>
<wgt id='1796'> +1.3844094e+00 </wgt>
<wgt id='1797'> +1.3578435e+00 </wgt>
<wgt id='1798'> +1.3762661e+00 </wgt>
<wgt id='1799'> +1.4244960e+00 </wgt>
<wgt id='1800'> +1.4458966e+00 </wgt>
<wgt id='1801'> +1.3744040e+00 </wgt>
<wgt id='1802'> +1.4287831e+00 </wgt>
<wgt id='1803'> +1.3989689e+00 </wgt>
<wgt id='1804'> +1.4233469e+00 </wgt>
<wgt id='1805'> +1.4209977e+00 </wgt>
<wgt id='1806'> +1.3696873e+00 </wgt>
<wgt id='1807'> +1.3643776e+00 </wgt>
<wgt id='1808'> +1.3592943e+00 </wgt>
<wgt id='1809'> +1.4188629e+00 </wgt>
<wgt id='1810'> +1.3795133e+00 </wgt>
<wgt id='1811'> +1.4287316e+00 </wgt>
<wgt id='1812'> +1.3925311e+00 </wgt>
<wgt id='1813'> +1.4204306e+00 </wgt>
<wgt id='1814'> +1.4002061e+00 </wgt>
<wgt id='1815'> +1.4290473e+00 </wgt>
<wgt id='1816'> +1.3436229e+00 </wgt>
<wgt id='1817'> +1.3733452e+00 </wgt>
<wgt id='1818'> +1.3345601e+00 </wgt>
<wgt id='1819'> +1.3216320e+00 </wgt>
<wgt id='1820'> +1.3848537e+00 </wgt>
<wgt id='1821'> +1.3160811e+00 </wgt>
<wgt id='1822'> +1.3621968e+00 </wgt>
<wgt id='1823'> +1.3616732e+00 </wgt>
<wgt id='1824'> +1.3683481e+00 </wgt>
<wgt id='1825'> +1.3392668e+00 </wgt>
<wgt id='1826'> +1.3217937e+00 </wgt>
<wgt id='1827'> +1.3282369e+00 </wgt>
<wgt id='1828'> +1.3304917e+00 </wgt>
<wgt id='1829'> +1.3544262e+00 </wgt>
<wgt id='1830'> +1.2912925e+00 </wgt>
<wgt id='1831'> +1.3526594e+00 </wgt>
<wgt id='1832'> +1.3319250e+00 </wgt>
<wgt id='1833'> +1.2958513e+00 </wgt>
<wgt id='1834'> +1.2639340e+00 </wgt>
<wgt id='1835'> +1.3686432e+00 </wgt>
<wgt id='1836'> +1.3979338e+00 </wgt>
<wgt id='1837'> +1.3872965e+00 </wgt>
<wgt id='1838'> +1.3661338e+00 </wgt>
<wgt id='1839'> +1.3943495e+00 </wgt>
<wgt id='1840'> +1.3256298e+00 </wgt>
<wgt id='1841'> +1.3258796e+00 </wgt>
<wgt id='1842'> +1.3401538e+00 </wgt>
<wgt id='1843'> +1.2885973e+00 </wgt>
<wgt id='1844'> +1.3172432e+00 </wgt>
<wgt id='1845'> +1.3449078e+00 </wgt>
<wgt id='1846'> +1.3507593e+00 </wgt>
<wgt id='1847'> +1.3371995e+00 </wgt>
<wgt id='1848'> +1.3624284e+00 </wgt>
<wgt id='1849'> +1.3729101e+00 </wgt>
<wgt id='1850'> +1.3344964e+00 </wgt>
<wgt id='1851'> +1.3351491e+00 </wgt>
<wgt id='1852'> +1.3360840e+00 </wgt>
<wgt id='1853'> +1.3100445e+00 </wgt>
<wgt id='1854'> +1.3832098e+00 </wgt>
<wgt id='1855'> +1.3381235e+00 </wgt>
<wgt id='1856'> +1.3539779e+00 </wgt>
<wgt id='1857'> +1.4016675e+00 </wgt>
<wgt id='1858'> +1.3510327e+00 </wgt>
<wgt id='1859'> +1.3545525e+00 </wgt>
<wgt id='1860'> +1.3399316e+00 </wgt>
<wgt id='1861'> +1.3502867e+00 </wgt>
<wgt id='1862'> +1.3504392e+00 </wgt>
<wgt id='1863'> +1.3474093e+00 </wgt>
<wgt id='1864'> +1.3389974e+00 </wgt>
<wgt id='1865'> +1.3201657e+00 </wgt>
<wgt id='1866'> +1.3506176e+00 </wgt>
<wgt id='1867'> +1.3592222e+00 </wgt>
<wgt id='1868'> +1.3428208e+00 </wgt>
<wgt id='1869'> +1.3223736e+00 </wgt>
<wgt id='1870'> +1.3705394e+00 </wgt>
<wgt id='1871'> +1.3487487e+00 </wgt>
<wgt id='1872'> +1.2863301e+00 </wgt>
<wgt id='1873'> +1.3398733e+00 </wgt>
<wgt id='1874'> +1.3434199e+00 </wgt>
<wgt id='1875'> +1.3152086e+00 </wgt>
<wgt id='1876'> +1.3737738e+00 </wgt>
<wgt id='1877'> +1.3423451e+00 </wgt>
<wgt id='1878'> +1.3340633e+00 </wgt>
<wgt id='1879'> +1.3097153e+00 </wgt>
<wgt id='1880'> +1.2466705e+00 </wgt>
<wgt id='1881'> +1.3505182e+00 </wgt>
<wgt id='1882'> +1.3176630e+00 </wgt>
<wgt id='1883'> +1.4981947e+00 </wgt>
<wgt id='1884'> +1.3268640e+00 </wgt>
<wgt id='1885'> +1.3131760e+00 </wgt>
<wgt id='1886'> +1.3497422e+00 </wgt>
<wgt id='1887'> +1.3712126e+00 </wgt>
<wgt id='1888'> +1.3385723e+00 </wgt>
<wgt id='1889'> +1.3608284e+00 </wgt>
<wgt id='1890'> +1.3408188e+00 </wgt>
<wgt id='1891'> +1.3428533e+00 </wgt>
<wgt id='1892'> +1.3619275e+00 </wgt>
<wgt id='1893'> +1.3311711e+00 </wgt>
<wgt id='1894'> +1.3840020e+00 </wgt>
<wgt id='1895'> +1.3648819e+00 </wgt>
<wgt id='1896'> +1.3475118e+00 </wgt>
<wgt id='1897'> +1.3560637e+00 </wgt>
<wgt id='1898'> +1.3482648e+00 </wgt>
<wgt id='1899'> +1.3775910e+00 </wgt>
<wgt id='1900'> +1.3377651e+00 </wgt>
<wgt id='1901'> +1.3352428e+00 </wgt>
<wgt id='1902'> +1.3226795e+00 </wgt>
<wgt id='1903'> +1.3599305e+00 </wgt>
<wgt id='1904'> +1.3541534e+00 </wgt>
<wgt id='1905'> +1.3449684e+00 </wgt>
<wgt id='1906'> +1.3244218e+00 </wgt>
<wgt id='1907'> +1.3545507e+00 </wgt>
<wgt id='1908'> +1.3715876e+00 </wgt>
<wgt id='1909'> +1.3301789e+00 </wgt>
<wgt id='1910'> +1.3659264e+00 </wgt>
<wgt id='1911'> +1.2637237e+00 </wgt>
<wgt id='1912'> +1.3573468e+00 </wgt>
<wgt id='1913'> +1.3078505e+00 </wgt>
<wgt id='1914'> +1.3628054e+00 </wgt>
<wgt id='1915'> +1.3615828e+00 </wgt>
<wgt id='1916'> +1.2778352e+00 </wgt>
<wgt id='1917'> +1.3056318e+00 </wgt>
<wgt id='1918'> +1.4153614e+00 </wgt>
<wgt id='1919'> +1.3436229e+00 </wgt>
<wgt id='1920'> +1.3733452e+00 </wgt>
<wgt id='1921'> +1.3345601e+00 </wgt>
<wgt id='1922'> +1.3216320e+00 </wgt>
<wgt id='1923'> +1.3848537e+00 </wgt>
<wgt id='1924'> +1.3160811e+00 </wgt>
<wgt id='1925'> +1.3621968e+00 </wgt>
<wgt id='1926'> +1.3616732e+00 </wgt>
<wgt id='1927'> +1.3683481e+00 </wgt>
<wgt id='1928'> +1.3392668e+00 </wgt>
<wgt id='1929'> +1.3217937e+00 </wgt>
<wgt id='1930'> +1.3282369e+00 </wgt>
<wgt id='1931'> +1.3304917e+00 </wgt>
<wgt id='1932'> +1.3544262e+00 </wgt>
<wgt id='1933'> +1.2912925e+00 </wgt>
<wgt id='1934'> +1.3526594e+00 </wgt>
<wgt id='1935'> +1.3319250e+00 </wgt>
<wgt id='1936'> +1.2958513e+00 </wgt>
<wgt id='1937'> +1.2639340e+00 </wgt>
<wgt id='1938'> +1.3686432e+00 </wgt>
<wgt id='1939'> +1.3979338e+00 </wgt>
<wgt id='1940'> +1.3872965e+00 </wgt>
<wgt id='1941'> +1.3661338e+00 </wgt>
<wgt id='1942'> +1.3943495e+00 </wgt>
<wgt id='1943'> +1.3256298e+00 </wgt>
<wgt id='1944'> +1.3258796e+00 </wgt>
<wgt id='1945'> +1.3401538e+00 </wgt>
<wgt id='1946'> +1.2885973e+00 </wgt>
<wgt id='1947'> +1.3172432e+00 </wgt>
<wgt id='1948'> +1.3449078e+00 </wgt>
<wgt id='1949'> +1.3507593e+00 </wgt>
<wgt id='1950'> +1.3371995e+00 </wgt>
<wgt id='1951'> +1.3624284e+00 </wgt>
<wgt id='1952'> +1.3729101e+00 </wgt>
<wgt id='1953'> +1.3344964e+00 </wgt>
<wgt id='1954'> +1.3351491e+00 </wgt>
<wgt id='1955'> +1.3360840e+00 </wgt>
<wgt id='1956'> +1.3100445e+00 </wgt>
<wgt id='1957'> +1.3832098e+00 </wgt>
<wgt id='1958'> +1.3381235e+00 </wgt>
<wgt id='1959'> +1.3539779e+00 </wgt>
<wgt id='1960'> +1.4016675e+00 </wgt>
<wgt id='1961'> +1.3510327e+00 </wgt>
<wgt id='1962'> +1.3545525e+00 </wgt>
<wgt id='1963'> +1.3399316e+00 </wgt>
<wgt id='1964'> +1.3502867e+00 </wgt>
<wgt id='1965'> +1.3504392e+00 </wgt>
<wgt id='1966'> +1.3474093e+00 </wgt>
<wgt id='1967'> +1.3389974e+00 </wgt>
<wgt id='1968'> +1.3201657e+00 </wgt>
<wgt id='1969'> +1.3506176e+00 </wgt>
<wgt id='1970'> +1.3592222e+00 </wgt>
<wgt id='1971'> +1.3428208e+00 </wgt>
<wgt id='1972'> +1.3223736e+00 </wgt>
<wgt id='1973'> +1.3705394e+00 </wgt>
<wgt id='1974'> +1.3487487e+00 </wgt>
<wgt id='1975'> +1.2863301e+00 </wgt>
<wgt id='1976'> +1.3398733e+00 </wgt>
<wgt id='1977'> +1.3434199e+00 </wgt>
<wgt id='1978'> +1.3152086e+00 </wgt>
<wgt id='1979'> +1.3737738e+00 </wgt>
<wgt id='1980'> +1.3423451e+00 </wgt>
<wgt id='1981'> +1.3340633e+00 </wgt>
<wgt id='1982'> +1.3097153e+00 </wgt>
<wgt id='1983'> +1.2466705e+00 </wgt>
<wgt id='1984'> +1.3505182e+00 </wgt>
<wgt id='1985'> +1.3176630e+00 </wgt>
<wgt id='1986'> +1.4981947e+00 </wgt>
<wgt id='1987'> +1.3268640e+00 </wgt>
<wgt id='1988'> +1.3131760e+00 </wgt>
<wgt id='1989'> +1.3497422e+00 </wgt>
<wgt id='1990'> +1.3712126e+00 </wgt>
<wgt id='1991'> +1.3385723e+00 </wgt>
<wgt id='1992'> +1.3608284e+00 </wgt>
<wgt id='1993'> +1.3408188e+00 </wgt>
<wgt id='1994'> +1.3428533e+00 </wgt>
<wgt id='1995'> +1.3619275e+00 </wgt>
<wgt id='1996'> +1.3311711e+00 </wgt>
<wgt id='1997'> +1.3840020e+00 </wgt>
<wgt id='1998'> +1.3648819e+00 </wgt>
<wgt id='1999'> +1.3475118e+00 </wgt>
<wgt id='2000'> +1.3560637e+00 </wgt>
<wgt id='2001'> +1.3482648e+00 </wgt>
<wgt id='2002'> +1.3775910e+00 </wgt>
<wgt id='2003'> +1.3377651e+00 </wgt>
<wgt id='2004'> +1.3352428e+00 </wgt>
<wgt id='2005'> +1.3226795e+00 </wgt>
<wgt id='2006'> +1.3599305e+00 </wgt>
<wgt id='2007'> +1.3541534e+00 </wgt>
<wgt id='2008'> +1.3449684e+00 </wgt>
<wgt id='2009'> +1.3244218e+00 </wgt>
<wgt id='2010'> +1.3545507e+00 </wgt>
<wgt id='2011'> +1.3715876e+00 </wgt>
<wgt id='2012'> +1.3301789e+00 </wgt>
<wgt id='2013'> +1.3659264e+00 </wgt>
<wgt id='2014'> +1.2637237e+00 </wgt>
<wgt id='2015'> +1.3573468e+00 </wgt>
<wgt id='2016'> +1.3078505e+00 </wgt>
<wgt id='2017'> +1.3628054e+00 </wgt>
<wgt id='2018'> +1.3615828e+00 </wgt>
<wgt id='2019'> +1.2778352e+00 </wgt>
<wgt id='2020'> +1.3432052e+00 </wgt>
<wgt id='2021'> +1.3510489e+00 </wgt>
<wgt id='2022'> +1.3504216e+00 </wgt>
</rwgt>
</event>
<event>
13      1 +1.3581722e+00 2.13365600e+02 7.81860800e-03 1.25991200e-01
        2 -1    0    0  501    0 +0.0000000000e+00 +0.0000000000e+00 +2.0964169922e+02 2.0964169923e+02 2.5500000000e-03 0.0000e+00 -1.0000e+00
       21 -1    0    0  502  503 +0.0000000000e+00 +0.0000000000e+00 -7.2562029428e+02 7.2562029428e+02 0.0000000000e+00 0.0000e+00 -1.0000e+00
  8000001  2    1    2  502    0 +6.3014849427e+01 -2.2558887140e+01 -4.8063968347e+02 7.7168272140e+02 5.9999995213e+02 0.0000e+00 0.0000e+00
        1  1    1    2  501    0 +6.5990367917e+00 -7.8920932187e+00 +4.8939949875e+01 5.0009510507e+01 5.0400000000e-03 0.0000e+00 -1.0000e+00
       -5  1    1    2    0  503 -6.9613886219e+01 +3.0450980359e+01 -8.4278861466e+01 1.1356976160e+02 4.6700000000e+00 0.0000e+00 1.0000e+00
        6  2    3    3  502    0 +1.9008360488e+02 +2.0490589619e+02 -2.4790344778e+02 4.1141550387e+02 1.7230320445e+02 0.0000e+00 0.0000e+00
        5  1    6    6  502    0 +1.4298731255e+02 +1.0187795128e+02 -1.9530939849e+02 2.6266339400e+02 4.6700000000e+00 0.0000e+00 -1.0000e+00
       24  2    6    6    0    0 +4.7096292335e+01 +1.0302794491e+02 -5.2594049291e+01 1.4875210987e+02 8.0797512253e+01 0.0000e+00 0.0000e+00
       14  1    8    8    0    0 +1.9590456061e+01 +1.0451191264e+02 -5.7329017292e+01 1.2080207811e+02 0.0000000000e+00 0.0000e+00 -1.0000e+00
      -13  1    8    8    0    0 +2.7505836274e+01 -1.4839677316e+00 +4.7349680007e+00 2.7950031759e+01 1.0566000000e-01 0.0000e+00 1.0000e+00
       23  2    3    3    0    0 -1.2706875546e+02 -2.2746478333e+02 -2.3273623569e+02 3.6026721754e+02 8.7975089438e+01 0.0000e+00 0.0000e+00
        1  1   11   11  504    0 -8.5619213602e+01 -2.1455092055e+02 -1.8699924192e+02 2.9720609642e+02 5.0400000000e-03 0.0000e+00 -1.0000e+00
       -1  1   11   11    0  504 -4.1449541855e+01 -1.2913862777e+01 -4.5736993766e+01 6.3061121112e+01 5.0400000000e-03 0.0000e+00 1.0000e+00
<mgrwt>
<rscale>  1 0.46850791e+02</rscale>
<asrwt>0</asrwt>
<pdfrwt beam="1">  1       21 0.11163389e+00 0.21336562e+03</pdfrwt>
<pdfrwt beam="2">  1        2 0.32252569e-01 0.10287490e+02</pdfrwt>
<totfact> 0.12079918e+03</totfact>
</mgrwt>
<rwgt>
<wgt id='1001'> +1.3581722e+00 </wgt>
<wgt id='1002'> +9.2079140e-01 </wgt>
<wgt id='1003'> +9.2076057e-01 </wgt>
<wgt id='1004'> +1.0612562e+00 </wgt>
<wgt id='1005'> +8.9373912e-01 </wgt>
<wgt id='1006'> +1.2092576e+00 </wgt>
<wgt id='1007'> +8.5083164e-01 </wgt>
<wgt id='1008'> +8.5080451e-01 </wgt>
<wgt id='1009'> +9.7366806e-01 </wgt>
<wgt id='1010'> +8.2698945e-01 </wgt>
<wgt id='1011'> +1.5507698e+00 </wgt>
<wgt id='1012'> +1.0036248e+00 </wgt>
<wgt id='1013'> +1.0035893e+00 </wgt>
<wgt id='1014'> +1.1666863e+00 </wgt>
<wgt id='1015'> +9.7251689e-01 </wgt>
<wgt id='1016'> +1.3153734e+00 </wgt>
<wgt id='1017'> +8.7263307e-01 </wgt>
<wgt id='1018'> +8.7260441e-01 </wgt>
<wgt id='1019'> +1.0035893e+00 </wgt>
<wgt id='1020'> +8.4746379e-01 </wgt>
<wgt id='1021'> +1.1711515e+00 </wgt>
<wgt id='1022'> +8.0633228e-01 </wgt>
<wgt id='1023'> +8.0630708e-01 </wgt>
<wgt id='1024'> +9.2076057e-01 </wgt>
<wgt id='1025'> +7.8417024e-01 </wgt>
<wgt id='1026'> +1.5019019e+00 </wgt>
<wgt id='1027'> +9.5113425e-01 </wgt>
<wgt id='1028'> +9.5110118e-01 </wgt>
<wgt id='1029'> +1.1032905e+00 </wgt>
<wgt id='1030'> +9.2216267e-01 </wgt>
<wgt id='1031'> +1.3861842e+00 </wgt>
<wgt id='1032'> +9.7370121e-01 </wgt>
<wgt id='1033'> +9.7366806e-01 </wgt>
<wgt id='1034'> +1.1248421e+00 </wgt>
<wgt id='1035'> +9.4463669e-01 </wgt>
<wgt id='1036'> +1.2341983e+00 </wgt>
<wgt id='1037'> +8.9972148e-01 </wgt>
<wgt id='1038'> +8.9969228e-01 </wgt>
<wgt id='1039'> +1.0320060e+00 </wgt>
<wgt id='1040'> +8.7408569e-01 </wgt>
<wgt id='1041'> +1.5827541e+00 </wgt>
<wgt id='1042'> +1.0612944e+00 </wgt>
<wgt id='1043'> +1.0612562e+00 </wgt>
<wgt id='1044'> +1.2365890e+00 </wgt>
<wgt id='1045'> +1.0279008e+00 </wgt>
<wgt id='1046'> +1.3581722e+00 </wgt>
<wgt id='1047'> +1.3581722e+00 </wgt>
<wgt id='1048'> +1.3581722e+00 </wgt>
<wgt id='1049'> +1.3539389e+00 </wgt>
<wgt id='1050'> +1.3584228e+00 </wgt>
<wgt id='1051'> +1.3584758e+00 </wgt>
<wgt id='1052'> +1.3598093e+00 </wgt>
<wgt id='1053'> +1.3536650e+00 </wgt>
<wgt id='1054'> +1.3554525e+00 </wgt>
<wgt id='1055'> +1.3574015e+00 </wgt>
<wgt id='1056'> +1.3515154e+00 </wgt>
<wgt id='1057'> +1.3657117e+00 </wgt>
<wgt id='1058'> +1.3560954e+00 </wgt>
<wgt id='1059'> +1.3634840e+00 </wgt>
<wgt id='1060'> +1.3573008e+00 </wgt>
<wgt id='1061'> +1.3598043e+00 </wgt>
<wgt id='1062'> +1.3582064e+00 </wgt>
<wgt id='1063'> +1.3602556e+00 </wgt>
<wgt id='1064'> +1.3581128e+00 </wgt>
<wgt id='1065'> +1.3602022e+00 </wgt>
<wgt id='1066'> +1.3488349e+00 </wgt>
<wgt id='1067'> +1.3468321e+00 </wgt>
<wgt id='1068'> +1.3579533e+00 </wgt>
<wgt id='1069'> +1.3570363e+00 </wgt>
<wgt id='1070'> +1.3642635e+00 </wgt>
<wgt id='1071'> +1.3603302e+00 </wgt>
<wgt id='1072'> +1.3469442e+00 </wgt>
<wgt id='1073'> +1.3578351e+00 </wgt>
<wgt id='1074'> +1.3545070e+00 </wgt>
<wgt id='1075'> +1.3672138e+00 </wgt>
<wgt id='1076'> +1.3606347e+00 </wgt>
<wgt id='1077'> +1.3593754e+00 </wgt>
<wgt id='1078'> +1.3624100e+00 </wgt>
<wgt id='1079'> +1.3565225e+00 </wgt>
<wgt id='1080'> +1.3548528e+00 </wgt>
<wgt id='1081'> +1.3587967e+00 </wgt>
<wgt id='1082'> +1.3545624e+00 </wgt>
<wgt id='1083'> +1.3624765e+00 </wgt>
<wgt id='1084'> +1.3625258e+00 </wgt>
<wgt id='1085'> +1.3546548e+00 </wgt>
<wgt id='1086'> +1.3586454e+00 </wgt>
<wgt id='1087'> +1.3609756e+00 </wgt>
<wgt id='1088'> +1.3585539e+00 </wgt>
<wgt id='1089'> +1.3612379e+00 </wgt>
<wgt id='1090'> +1.3589250e+00 </wgt>
<wgt id='1091'> +1.3516037e+00 </wgt>
<wgt id='1092'> +1.3616431e+00 </wgt>
<wgt id='1093'> +1.3588097e+00 </wgt>
<wgt id='1094'> +1.3604419e+00 </wgt>
<wgt id='1095'> +1.3568102e+00 </wgt>
<wgt id='1096'> +1.3586994e+00 </wgt>
<wgt id='1097'> +1.3560417e+00 </wgt>
<wgt id='1098'> +1.3581820e+00 </wgt>
<wgt id='1099'> +1.3592003e+00 </wgt>
<wgt id='1100'> +1.3611495e+00 </wgt>
<wgt id='1101'> +1.3561313e+00 </wgt>
<wgt id='1102'> +1.3576596e+00 </wgt>
<wgt id='1103'> +1.3572641e+00 </wgt>
<wgt id='1104'> +1.3616266e+00 </wgt>
<wgt id='1105'> +1.3592408e+00 </wgt>
<wgt id='1106'> +1.3589918e+00 </wgt>
<wgt id='1107'> +1.3567723e+00 </wgt>
<wgt id='1108'> +1.3578998e+00 </wgt>
<wgt id='1109'> +1.3583553e+00 </wgt>
<wgt id='1110'> +1.3570746e+00 </wgt>
<wgt id='1111'> +1.3587717e+00 </wgt>
<wgt id='1112'> +1.3590460e+00 </wgt>
<wgt id='1113'> +1.3574575e+00 </wgt>
<wgt id='1114'> +1.3581584e+00 </wgt>
<wgt id='1115'> +1.3573060e+00 </wgt>
<wgt id='1116'> +1.3591932e+00 </wgt>
<wgt id='1117'> +1.3587213e+00 </wgt>
<wgt id='1118'> +1.3563648e+00 </wgt>
<wgt id='1119'> +1.3582401e+00 </wgt>
<wgt id='1120'> +1.3601381e+00 </wgt>
<wgt id='1121'> +1.3590200e+00 </wgt>
<wgt id='1122'> +1.3598714e+00 </wgt>
<wgt id='1123'> +1.3573905e+00 </wgt>
<wgt id='1124'> +1.3578077e+00 </wgt>
<wgt id='1125'> +1.3589742e+00 </wgt>
<wgt id='1126'> +1.3590305e+00 </wgt>
<wgt id='1127'> +1.3565882e+00 </wgt>
<wgt id='1128'> +1.3599357e+00 </wgt>
<wgt id='1129'> +1.3585707e+00 </wgt>
<wgt id='1130'> +1.3578143e+00 </wgt>
<wgt id='1131'> +1.3594537e+00 </wgt>
<wgt id='1132'> +1.3585560e+00 </wgt>
<wgt id='1133'> +1.3587969e+00 </wgt>
<wgt id='1134'> +1.3577778e+00 </wgt>
<wgt id='1135'> +1.3603966e+00 </wgt>
<wgt id='1136'> +1.3576427e+00 </wgt>
<wgt id='1137'> +1.3582156e+00 </wgt>
<wgt id='1138'> +1.3586269e+00 </wgt>
<wgt id='1139'> +1.3587238e+00 </wgt>
<wgt id='1140'> +1.3589547e+00 </wgt>
<wgt id='1141'> +1.3588408e+00 </wgt>
<wgt id='1142'> +1.3586413e+00 </wgt>
<wgt id='1143'> +1.3581773e+00 </wgt>
<wgt id='1144'> +1.3586667e+00 </wgt>
<wgt id='1145'> +1.3585295e+00 </wgt>
<wgt id='1146'> +1.3583998e+00 </wgt>
<wgt id='1147'> +1.3577821e+00 </wgt>
<wgt id='1148'> +1.3581722e+00 </wgt>
<wgt id='1149'> +1.3632974e+00 </wgt>
<wgt id='1150'> +1.4309570e+00 </wgt>
<wgt id='1151'> +1.3516668e+00 </wgt>
<wgt id='1152'> +1.3557722e+00 </wgt>
<wgt id='1153'> +1.3514994e+00 </wgt>
<wgt id='1154'> +1.3657835e+00 </wgt>
<wgt id='1155'> +1.3907915e+00 </wgt>
<wgt id='1156'> +1.3557863e+00 </wgt>
<wgt id='1157'> +1.3379422e+00 </wgt>
<wgt id='1158'> +1.3102614e+00 </wgt>
<wgt id='1159'> +1.3706287e+00 </wgt>
<wgt id='1160'> +1.3510492e+00 </wgt>
<wgt id='1161'> +1.3424317e+00 </wgt>
<wgt id='1162'> +1.3350053e+00 </wgt>
<wgt id='1163'> +1.3828696e+00 </wgt>
<wgt id='1164'> +1.3317179e+00 </wgt>
<wgt id='1165'> +1.3662851e+00 </wgt>
<wgt id='1166'> +1.3848935e+00 </wgt>
<wgt id='1167'> +1.3474395e+00 </wgt>
<wgt id='1168'> +1.3629293e+00 </wgt>
<wgt id='1169'> +1.3238317e+00 </wgt>
<wgt id='1170'> +1.3276398e+00 </wgt>
<wgt id='1171'> +1.3490322e+00 </wgt>
<wgt id='1172'> +1.3619561e+00 </wgt>
<wgt id='1173'> +1.3818480e+00 </wgt>
<wgt id='1174'> +1.3354980e+00 </wgt>
<wgt id='1175'> +1.3816101e+00 </wgt>
<wgt id='1176'> +1.3714045e+00 </wgt>
<wgt id='1177'> +1.3457421e+00 </wgt>
<wgt id='1178'> +1.3936846e+00 </wgt>
<wgt id='1179'> +1.3288381e+00 </wgt>
<wgt id='1180'> +1.3686563e+00 </wgt>
<wgt id='1181'> +1.3042068e+00 </wgt>
<wgt id='1182'> +1.3532086e+00 </wgt>
<wgt id='1183'> +1.3882614e+00 </wgt>
<wgt id='1184'> +1.3621734e+00 </wgt>
<wgt id='1185'> +1.3405881e+00 </wgt>
<wgt id='1186'> +1.3382873e+00 </wgt>
<wgt id='1187'> +1.3598427e+00 </wgt>
<wgt id='1188'> +1.3358815e+00 </wgt>
<wgt id='1189'> +1.3902647e+00 </wgt>
<wgt id='1190'> +1.3601607e+00 </wgt>
<wgt id='1191'> +1.3988159e+00 </wgt>
<wgt id='1192'> +1.3880885e+00 </wgt>
<wgt id='1193'> +1.3990982e+00 </wgt>
<wgt id='1194'> +1.3879616e+00 </wgt>
<wgt id='1195'> +1.4011973e+00 </wgt>
<wgt id='1196'> +1.3808473e+00 </wgt>
<wgt id='1197'> +1.3846589e+00 </wgt>
<wgt id='1198'> +1.3551294e+00 </wgt>
<wgt id='1199'> +1.3794824e+00 </wgt>
<wgt id='1200'> +1.3680049e+00 </wgt>
<wgt id='1201'> +1.3349526e+00 </wgt>
<wgt id='1202'> +1.3757637e+00 </wgt>
<wgt id='1203'> +1.3731612e+00 </wgt>
<wgt id='1204'> +1.4154711e+00 </wgt>
<wgt id='1205'> +1.3529601e+00 </wgt>
<wgt id='1206'> +1.3686857e+00 </wgt>
<wgt id='1207'> +1.3578888e+00 </wgt>
<wgt id='1208'> +1.3191854e+00 </wgt>
<wgt id='1209'> +1.3686332e+00 </wgt>
<wgt id='1210'> +1.3502814e+00 </wgt>
<wgt id='1211'> +1.3753190e+00 </wgt>
<wgt id='1212'> +1.3957560e+00 </wgt>
<wgt id='1213'> +1.3855482e+00 </wgt>
<wgt id='1214'> +1.3466214e+00 </wgt>
<wgt id='1215'> +1.3808715e+00 </wgt>
<wgt id='1216'> +1.4192912e+00 </wgt>
<wgt id='1217'> +1.3493647e+00 </wgt>
<wgt id='1218'> +1.3763281e+00 </wgt>
<wgt id='1219'> +1.4011910e+00 </wgt>
<wgt id='1220'> +1.3219435e+00 </wgt>
<wgt id='1221'> +1.4054642e+00 </wgt>
<wgt id='1222'> +1.2796219e+00 </wgt>
<wgt id='1223'> +1.3049789e+00 </wgt>
<wgt id='1224'> +1.3539504e+00 </wgt>
<wgt id='1225'> +1.4033757e+00 </wgt>
<wgt id='1226'> +1.3613030e+00 </wgt>
<wgt id='1227'> +1.3250706e+00 </wgt>
<wgt id='1228'> +1.3430929e+00 </wgt>
<wgt id='1229'> +1.4268652e+00 </wgt>
<wgt id='1230'> +1.3842241e+00 </wgt>
<wgt id='1231'> +1.3662851e+00 </wgt>
<wgt id='1232'> +1.3810343e+00 </wgt>
<wgt id='1233'> +1.3379170e+00 </wgt>
<wgt id='1234'> +1.3275716e+00 </wgt>
<wgt id='1235'> +1.4195981e+00 </wgt>
<wgt id='1236'> +1.3258212e+00 </wgt>
<wgt id='1237'> +1.3740837e+00 </wgt>
<wgt id='1238'> +1.3372791e+00 </wgt>
<wgt id='1239'> +1.3785777e+00 </wgt>
<wgt id='1240'> +1.3890817e+00 </wgt>
<wgt id='1241'> +1.3504718e+00 </wgt>
<wgt id='1242'> +1.3492511e+00 </wgt>
<wgt id='1243'> +1.3940480e+00 </wgt>
<wgt id='1244'> +1.3481747e+00 </wgt>
<wgt id='1245'> +1.3488596e+00 </wgt>
<wgt id='1246'> +1.4303029e+00 </wgt>
<wgt id='1247'> +1.3531047e+00 </wgt>
<wgt id='1248'> +1.3447358e+00 </wgt>
<wgt id='1249'> +1.3451897e+00 </wgt>
<wgt id='1250'> +1.3494496e+00 </wgt>
<wgt id='1251'> +1.3400116e+00 </wgt>
<wgt id='1252'> +1.4178588e+00 </wgt>
<wgt id='1253'> +1.3896304e+00 </wgt>
<wgt id='1254'> +1.4410759e+00 </wgt>
<wgt id='1255'> +1.4037239e+00 </wgt>
<wgt id='1256'> +1.4024929e+00 </wgt>
<wgt id='1257'> +1.4044218e+00 </wgt>
<wgt id='1258'> +1.4013804e+00 </wgt>
<wgt id='1259'> +1.4049414e+00 </wgt>
<wgt id='1260'> +1.4054684e+00 </wgt>
<wgt id='1261'> +1.4013813e+00 </wgt>
<wgt id='1262'> +1.4053072e+00 </wgt>
<wgt id='1263'> +1.4027095e+00 </wgt>
<wgt id='1264'> +1.4051468e+00 </wgt>
<wgt id='1265'> +1.4027706e+00 </wgt>
<wgt id='1266'> +1.4070287e+00 </wgt>
<wgt id='1267'> +1.4004528e+00 </wgt>
<wgt id='1268'> +1.4112075e+00 </wgt>
<wgt id='1269'> +1.3960391e+00 </wgt>
<wgt id='1270'> +1.3873474e+00 </wgt>
<wgt id='1271'> +1.4217086e+00 </wgt>
<wgt id='1272'> +1.3972562e+00 </wgt>
<wgt id='1273'> +1.4086595e+00 </wgt>
<wgt id='1274'> +1.4045303e+00 </wgt>
<wgt id='1275'> +1.4026153e+00 </wgt>
<wgt id='1276'> +1.4164294e+00 </wgt>
<wgt id='1277'> +1.3900912e+00 </wgt>
<wgt id='1278'> +1.3975442e+00 </wgt>
<wgt id='1279'> +1.4082823e+00 </wgt>
<wgt id='1280'> +1.4015457e+00 </wgt>
<wgt id='1281'> +1.4102776e+00 </wgt>
<wgt id='1282'> +1.4014930e+00 </wgt>
<wgt id='1283'> +1.4026014e+00 </wgt>
<wgt id='1284'> +1.4056435e+00 </wgt>
<wgt id='1285'> +1.4016233e+00 </wgt>
<wgt id='1286'> +1.3989852e+00 </wgt>
<wgt id='1287'> +1.4041121e+00 </wgt>
<wgt id='1288'> +1.4062238e+00 </wgt>
<wgt id='1289'> +1.4033018e+00 </wgt>
<wgt id='1290'> +1.4046169e+00 </wgt>
<wgt id='1291'> +1.4034286e+00 </wgt>
<wgt id='1292'> +1.4134713e+00 </wgt>
<wgt id='1293'> +1.3914754e+00 </wgt>
<wgt id='1294'> +1.4006174e+00 </wgt>
<wgt id='1295'> +1.4000554e+00 </wgt>
<wgt id='1296'> +1.3756242e+00 </wgt>
<wgt id='1297'> +1.3793635e+00 </wgt>
<wgt id='1298'> +1.3725246e+00 </wgt>
<wgt id='1299'> +1.3794629e+00 </wgt>
<wgt id='1300'> +1.3712988e+00 </wgt>
<wgt id='1301'> +1.3731538e+00 </wgt>
<wgt id='1302'> +1.3792346e+00 </wgt>
<wgt id='1303'> +1.3747548e+00 </wgt>
<wgt id='1304'> +1.3761973e+00 </wgt>
<wgt id='1305'> +1.3758374e+00 </wgt>
<wgt id='1306'> +1.3752891e+00 </wgt>
<wgt id='1307'> +1.3768566e+00 </wgt>
<wgt id='1308'> +1.3748034e+00 </wgt>
<wgt id='1309'> +1.3754286e+00 </wgt>
<wgt id='1310'> +1.3759131e+00 </wgt>
<wgt id='1311'> +1.3778399e+00 </wgt>
<wgt id='1312'> +1.3747353e+00 </wgt>
<wgt id='1313'> +1.3648053e+00 </wgt>
<wgt id='1314'> +1.3887814e+00 </wgt>
<wgt id='1315'> +1.3791888e+00 </wgt>
<wgt id='1316'> +1.3721730e+00 </wgt>
<wgt id='1317'> +1.3863524e+00 </wgt>
<wgt id='1318'> +1.3575492e+00 </wgt>
<wgt id='1319'> +1.3594851e+00 </wgt>
<wgt id='1320'> +1.3858103e+00 </wgt>
<wgt id='1321'> +1.3674513e+00 </wgt>
<wgt id='1322'> +1.3795174e+00 </wgt>
<wgt id='1323'> +1.3720758e+00 </wgt>
<wgt id='1324'> +1.3793606e+00 </wgt>
<wgt id='1325'> +1.3739239e+00 </wgt>
<wgt id='1326'> +1.3757371e+00 </wgt>
<wgt id='1327'> +1.3754377e+00 </wgt>
<wgt id='1328'> +1.3756976e+00 </wgt>
<wgt id='1329'> +1.3754395e+00 </wgt>
<wgt id='1330'> +1.3759463e+00 </wgt>
<wgt id='1331'> +1.3681358e+00 </wgt>
<wgt id='1332'> +1.3785025e+00 </wgt>
<wgt id='1333'> +1.3761059e+00 </wgt>
<wgt id='1334'> +1.3804660e+00 </wgt>
<wgt id='1335'> +1.3751770e+00 </wgt>
<wgt id='1336'> +1.3756492e+00 </wgt>
<wgt id='1337'> +1.3756242e+00 </wgt>
<wgt id='1338'> +1.3743092e+00 </wgt>
<wgt id='1339'> +1.3747041e+00 </wgt>
<wgt id='1340'> +1.3750005e+00 </wgt>
<wgt id='1341'> +1.3754945e+00 </wgt>
<wgt id='1342'> +1.3756471e+00 </wgt>
<wgt id='1343'> +1.3758211e+00 </wgt>
<wgt id='1344'> +1.3330728e+00 </wgt>
<wgt id='1345'> +1.3373929e+00 </wgt>
<wgt id='1346'> +1.3287925e+00 </wgt>
<wgt id='1347'> +1.3302563e+00 </wgt>
<wgt id='1348'> +1.3351007e+00 </wgt>
<wgt id='1349'> +1.3309974e+00 </wgt>
<wgt id='1350'> +1.3348350e+00 </wgt>
<wgt id='1351'> +1.3329868e+00 </wgt>
<wgt id='1352'> +1.3331730e+00 </wgt>
<wgt id='1353'> +1.3372571e+00 </wgt>
<wgt id='1354'> +1.3301092e+00 </wgt>
<wgt id='1355'> +1.3335340e+00 </wgt>
<wgt id='1356'> +1.3327278e+00 </wgt>
<wgt id='1357'> +1.3339309e+00 </wgt>
<wgt id='1358'> +1.3325430e+00 </wgt>
<wgt id='1359'> +1.3317831e+00 </wgt>
<wgt id='1360'> +1.3361138e+00 </wgt>
<wgt id='1361'> +1.3141978e+00 </wgt>
<wgt id='1362'> +1.3499165e+00 </wgt>
<wgt id='1363'> +1.3277711e+00 </wgt>
<wgt id='1364'> +1.3396176e+00 </wgt>
<wgt id='1365'> +1.3226031e+00 </wgt>
<wgt id='1366'> +1.3374645e+00 </wgt>
<wgt id='1367'> +1.3246648e+00 </wgt>
<wgt id='1368'> +1.3369917e+00 </wgt>
<wgt id='1369'> +1.3409930e+00 </wgt>
<wgt id='1370'> +1.3251908e+00 </wgt>
<wgt id='1371'> +1.3331557e+00 </wgt>
<wgt id='1372'> +1.3329408e+00 </wgt>
<wgt id='1373'> +1.3362488e+00 </wgt>
<wgt id='1374'> +1.3345001e+00 </wgt>
<wgt id='1375'> +1.3319563e+00 </wgt>
<wgt id='1376'> +1.3335777e+00 </wgt>
<wgt id='1377'> +1.3334024e+00 </wgt>
<wgt id='1378'> +1.3333476e+00 </wgt>
<wgt id='1379'> +1.3377519e+00 </wgt>
<wgt id='1380'> +1.3256019e+00 </wgt>
<wgt id='1381'> +1.3294861e+00 </wgt>
<wgt id='1382'> +1.3388876e+00 </wgt>
<wgt id='1383'> +1.3327174e+00 </wgt>
<wgt id='1384'> +1.3342052e+00 </wgt>
<wgt id='1385'> +1.3330728e+00 </wgt>
<wgt id='1386'> +1.3321432e+00 </wgt>
<wgt id='1387'> +1.3324837e+00 </wgt>
<wgt id='1388'> +1.3326266e+00 </wgt>
<wgt id='1389'> +1.3328470e+00 </wgt>
<wgt id='1390'> +1.3328522e+00 </wgt>
<wgt id='1391'> +1.3327177e+00 </wgt>
<wgt id='1392'> +1.4487063e+00 </wgt>
<wgt id='1393'> +1.4454830e+00 </wgt>
<wgt id='1394'> +1.4521516e+00 </wgt>
<wgt id='1395'> +1.4473450e+00 </wgt>
<wgt id='1396'> +1.4496779e+00 </wgt>
<wgt id='1397'> +1.4490834e+00 </wgt>
<wgt id='1398'> +1.4483430e+00 </wgt>
<wgt id='1399'> +1.4462018e+00 </wgt>
<wgt id='1400'> +1.4517960e+00 </wgt>
<wgt id='1401'> +1.4455856e+00 </wgt>
<wgt id='1402'> +1.4526034e+00 </wgt>
<wgt id='1403'> +1.4480279e+00 </wgt>
<wgt id='1404'> +1.4501349e+00 </wgt>
<wgt id='1405'> +1.4473313e+00 </wgt>
<wgt id='1406'> +1.4506027e+00 </wgt>
<wgt id='1407'> +1.4497240e+00 </wgt>
<wgt id='1408'> +1.4480237e+00 </wgt>
<wgt id='1409'> +1.4486066e+00 </wgt>
<wgt id='1410'> +1.4487120e+00 </wgt>
<wgt id='1411'> +1.4419610e+00 </wgt>
<wgt id='1412'> +1.4538463e+00 </wgt>
<wgt id='1413'> +1.4459668e+00 </wgt>
<wgt id='1414'> +1.4515797e+00 </wgt>
<wgt id='1415'> +1.4523696e+00 </wgt>
<wgt id='1416'> +1.4445382e+00 </wgt>
<wgt id='1417'> +1.4353320e+00 </wgt>
<wgt id='1418'> +1.4649178e+00 </wgt>
<wgt id='1419'> +1.4520025e+00 </wgt>
<wgt id='1420'> +1.4450668e+00 </wgt>
<wgt id='1421'> +1.4405397e+00 </wgt>
<wgt id='1422'> +1.4583810e+00 </wgt>
<wgt id='1423'> +1.4254088e+00 </wgt>
<wgt id='1424'> +1.4673830e+00 </wgt>
<wgt id='1425'> +1.4493125e+00 </wgt>
<wgt id='1426'> +1.4480031e+00 </wgt>
<wgt id='1427'> +1.4459512e+00 </wgt>
<wgt id='1428'> +1.4562737e+00 </wgt>
<wgt id='1429'> +1.4459099e+00 </wgt>
<wgt id='1430'> +1.4510181e+00 </wgt>
<wgt id='1431'> +1.4458230e+00 </wgt>
<wgt id='1432'> +1.4514809e+00 </wgt>
<wgt id='1433'> +1.4386286e+00 </wgt>
<wgt id='1434'> +1.4643778e+00 </wgt>
<wgt id='1435'> +1.4511305e+00 </wgt>
<wgt id='1436'> +1.4467176e+00 </wgt>
<wgt id='1437'> +1.4456293e+00 </wgt>
<wgt id='1438'> +1.4577503e+00 </wgt>
<wgt id='1439'> +1.4534547e+00 </wgt>
<wgt id='1440'> +1.4463360e+00 </wgt>
<wgt id='1441'> +1.4461927e+00 </wgt>
<wgt id='1442'> +1.4490047e+00 </wgt>
<wgt id='1443'> +1.4223509e+00 </wgt>
<wgt id='1444'> +1.4191657e+00 </wgt>
<wgt id='1445'> +1.4257613e+00 </wgt>
<wgt id='1446'> +1.4209432e+00 </wgt>
<wgt id='1447'> +1.4233149e+00 </wgt>
<wgt id='1448'> +1.4229594e+00 </wgt>
<wgt id='1449'> +1.4217943e+00 </wgt>
<wgt id='1450'> +1.4198420e+00 </wgt>
<wgt id='1451'> +1.4251277e+00 </wgt>
<wgt id='1452'> +1.4191841e+00 </wgt>
<wgt id='1453'> +1.4254450e+00 </wgt>
<wgt id='1454'> +1.4214568e+00 </wgt>
<wgt id='1455'> +1.4243361e+00 </wgt>
<wgt id='1456'> +1.4208044e+00 </wgt>
<wgt id='1457'> +1.4251013e+00 </wgt>
<wgt id='1458'> +1.4235644e+00 </wgt>
<wgt id='1459'> +1.4216568e+00 </wgt>
<wgt id='1460'> +1.4208233e+00 </wgt>
<wgt id='1461'> +1.4240141e+00 </wgt>
<wgt id='1462'> +1.4159472e+00 </wgt>
<wgt id='1463'> +1.4278875e+00 </wgt>
<wgt id='1464'> +1.4202920e+00 </wgt>
<wgt id='1465'> +1.4250586e+00 </wgt>
<wgt id='1466'> +1.4293166e+00 </wgt>
<wgt id='1467'> +1.4171690e+00 </wgt>
<wgt id='1468'> +1.4391682e+00 </wgt>
<wgt id='1469'> +1.4057045e+00 </wgt>
<wgt id='1470'> +1.4259298e+00 </wgt>
<wgt id='1471'> +1.4191877e+00 </wgt>
<wgt id='1472'> +1.4165436e+00 </wgt>
<wgt id='1473'> +1.4293131e+00 </wgt>
<wgt id='1474'> +1.4052424e+00 </wgt>
<wgt id='1475'> +1.4425791e+00 </wgt>
<wgt id='1476'> +1.4262283e+00 </wgt>
<wgt id='1477'> +1.4188910e+00 </wgt>
<wgt id='1478'> +1.4199430e+00 </wgt>
<wgt id='1479'> +1.4297470e+00 </wgt>
<wgt id='1480'> +1.4197362e+00 </wgt>
<wgt id='1481'> +1.4242677e+00 </wgt>
<wgt id='1482'> +1.4195280e+00 </wgt>
<wgt id='1483'> +1.4254982e+00 </wgt>
<wgt id='1484'> +1.4120393e+00 </wgt>
<wgt id='1485'> +1.4371348e+00 </wgt>
<wgt id='1486'> +1.4259362e+00 </wgt>
<wgt id='1487'> +1.4208840e+00 </wgt>
<wgt id='1488'> +1.4189269e+00 </wgt>
<wgt id='1489'> +1.4318014e+00 </wgt>
<wgt id='1490'> +1.4272109e+00 </wgt>
<wgt id='1491'> +1.4207517e+00 </wgt>
<wgt id='1492'> +1.4198276e+00 </wgt>
<wgt id='1493'> +1.4226584e+00 </wgt>
<wgt id='1494'> +1.3928517e+00 </wgt>
<wgt id='1495'> +1.3570586e+00 </wgt>
<wgt id='1496'> +1.3687126e+00 </wgt>
<wgt id='1497'> +1.3812490e+00 </wgt>
<wgt id='1498'> +1.4069521e+00 </wgt>
<wgt id='1499'> +1.3939806e+00 </wgt>
<wgt id='1500'> +1.3910770e+00 </wgt>
<wgt id='1501'> +1.3927872e+00 </wgt>
<wgt id='1502'> +1.3935707e+00 </wgt>
<wgt id='1503'> +1.3939788e+00 </wgt>
<wgt id='1504'> +1.3942636e+00 </wgt>
<wgt id='1505'> +1.3933929e+00 </wgt>
<wgt id='1506'> +1.3923525e+00 </wgt>
<wgt id='1507'> +1.3909535e+00 </wgt>
<wgt id='1508'> +1.3939806e+00 </wgt>
<wgt id='1509'> +1.3940490e+00 </wgt>
<wgt id='1510'> +1.3940542e+00 </wgt>
<wgt id='1511'> +1.3941494e+00 </wgt>
<wgt id='1512'> +1.3947260e+00 </wgt>
<wgt id='1513'> +1.3884318e+00 </wgt>
<wgt id='1514'> +1.3849864e+00 </wgt>
<wgt id='1515'> +1.3928560e+00 </wgt>
<wgt id='1516'> +1.3883759e+00 </wgt>
<wgt id='1517'> +1.3884817e+00 </wgt>
<wgt id='1518'> +1.3870183e+00 </wgt>
<wgt id='1519'> +1.3889972e+00 </wgt>
<wgt id='1520'> +1.3863408e+00 </wgt>
<wgt id='1521'> +1.3904926e+00 </wgt>
<wgt id='1522'> +1.3871692e+00 </wgt>
<wgt id='1523'> +1.3896595e+00 </wgt>
<wgt id='1524'> +1.3934323e+00 </wgt>
<wgt id='1525'> +1.3863179e+00 </wgt>
<wgt id='1526'> +1.3876258e+00 </wgt>
<wgt id='1527'> +1.3894159e+00 </wgt>
<wgt id='1528'> +1.3880747e+00 </wgt>
<wgt id='1529'> +1.3888404e+00 </wgt>
<wgt id='1530'> +1.3824067e+00 </wgt>
<wgt id='1531'> +1.3917765e+00 </wgt>
<wgt id='1532'> +1.3937753e+00 </wgt>
<wgt id='1533'> +1.3811476e+00 </wgt>
<wgt id='1534'> +1.3843263e+00 </wgt>
<wgt id='1535'> +1.3913009e+00 </wgt>
<wgt id='1536'> +1.3873040e+00 </wgt>
<wgt id='1537'> +1.3895909e+00 </wgt>
<wgt id='1538'> +1.3838816e+00 </wgt>
<wgt id='1539'> +1.3988275e+00 </wgt>
<wgt id='1540'> +1.3893050e+00 </wgt>
<wgt id='1541'> +1.3860614e+00 </wgt>
<wgt id='1542'> +1.3953392e+00 </wgt>
<wgt id='1543'> +1.3714225e+00 </wgt>
<wgt id='1544'> +1.3799757e+00 </wgt>
<wgt id='1545'> +1.4068577e+00 </wgt>
<wgt id='1546'> +1.3886669e+00 </wgt>
<wgt id='1547'> +1.3880735e+00 </wgt>
<wgt id='1548'> +1.3923359e+00 </wgt>
<wgt id='1549'> +1.3869999e+00 </wgt>
<wgt id='1550'> +1.3859420e+00 </wgt>
<wgt id='1551'> +1.3917147e+00 </wgt>
<wgt id='1552'> +1.3843425e+00 </wgt>
<wgt id='1553'> +1.3915066e+00 </wgt>
<wgt id='1554'> +1.3964892e+00 </wgt>
<wgt id='1555'> +1.3771174e+00 </wgt>
<wgt id='1556'> +1.3899438e+00 </wgt>
<wgt id='1557'> +1.3769388e+00 </wgt>
<wgt id='1558'> +1.3813959e+00 </wgt>
<wgt id='1559'> +1.3953758e+00 </wgt>
<wgt id='1560'> +1.3964866e+00 </wgt>
<wgt id='1561'> +1.3848640e+00 </wgt>
<wgt id='1562'> +1.3870721e+00 </wgt>
<wgt id='1563'> +1.3889249e+00 </wgt>
<wgt id='1564'> +1.3884318e+00 </wgt>
<wgt id='1565'> +1.3702458e+00 </wgt>
<wgt id='1566'> +1.4045464e+00 </wgt>
<wgt id='1567'> +1.3877111e+00 </wgt>
<wgt id='1568'> +1.3891721e+00 </wgt>
<wgt id='1569'> +1.3897910e+00 </wgt>
<wgt id='1570'> +1.3903049e+00 </wgt>
<wgt id='1571'> +1.3890359e+00 </wgt>
<wgt id='1572'> +1.3887104e+00 </wgt>
<wgt id='1573'> +1.3857072e+00 </wgt>
<wgt id='1574'> +1.3828395e+00 </wgt>
<wgt id='1575'> +1.3811221e+00 </wgt>
<wgt id='1576'> +1.3877111e+00 </wgt>
<wgt id='1577'> +1.3870493e+00 </wgt>
<wgt id='1578'> +1.3867750e+00 </wgt>
<wgt id='1579'> +1.3882560e+00 </wgt>
<wgt id='1580'> +1.3889790e+00 </wgt>
<wgt id='1581'> +1.3716637e+00 </wgt>
<wgt id='1582'> +1.3711831e+00 </wgt>
<wgt id='1583'> +1.3696559e+00 </wgt>
<wgt id='1584'> +1.3705239e+00 </wgt>
<wgt id='1585'> +1.3687210e+00 </wgt>
<wgt id='1586'> +1.3529684e+00 </wgt>
<wgt id='1587'> +1.3750377e+00 </wgt>
<wgt id='1588'> +1.3635118e+00 </wgt>
<wgt id='1589'> +1.3714362e+00 </wgt>
<wgt id='1590'> +1.3779692e+00 </wgt>
<wgt id='1591'> +1.3703899e+00 </wgt>
<wgt id='1592'> +1.3514808e+00 </wgt>
<wgt id='1593'> +1.3705144e+00 </wgt>
<wgt id='1594'> +1.3552933e+00 </wgt>
<wgt id='1595'> +1.3754292e+00 </wgt>
<wgt id='1596'> +1.3752564e+00 </wgt>
<wgt id='1597'> +1.3784769e+00 </wgt>
<wgt id='1598'> +1.3577466e+00 </wgt>
<wgt id='1599'> +1.3671556e+00 </wgt>
<wgt id='1600'> +1.3727193e+00 </wgt>
<wgt id='1601'> +1.3679188e+00 </wgt>
<wgt id='1602'> +1.3716715e+00 </wgt>
<wgt id='1603'> +1.3724794e+00 </wgt>
<wgt id='1604'> +1.3688240e+00 </wgt>
<wgt id='1605'> +1.3738550e+00 </wgt>
<wgt id='1606'> +1.3718193e+00 </wgt>
<wgt id='1607'> +1.3736437e+00 </wgt>
<wgt id='1608'> +1.3663525e+00 </wgt>
<wgt id='1609'> +1.3698727e+00 </wgt>
<wgt id='1610'> +1.3718651e+00 </wgt>
<wgt id='1611'> +1.3752559e+00 </wgt>
<wgt id='1612'> +1.3363945e+00 </wgt>
<wgt id='1613'> +1.3362132e+00 </wgt>
<wgt id='1614'> +1.3366120e+00 </wgt>
<wgt id='1615'> +1.3349943e+00 </wgt>
<wgt id='1616'> +1.3393124e+00 </wgt>
<wgt id='1617'> +1.3387516e+00 </wgt>
<wgt id='1618'> +1.3355961e+00 </wgt>
<wgt id='1619'> +1.3382890e+00 </wgt>
<wgt id='1620'> +1.3367565e+00 </wgt>
<wgt id='1621'> +1.3403944e+00 </wgt>
<wgt id='1622'> +1.3326386e+00 </wgt>
<wgt id='1623'> +1.3324752e+00 </wgt>
<wgt id='1624'> +1.3347317e+00 </wgt>
<wgt id='1625'> +1.3289473e+00 </wgt>
<wgt id='1626'> +1.3380948e+00 </wgt>
<wgt id='1627'> +1.3351111e+00 </wgt>
<wgt id='1628'> +1.3427600e+00 </wgt>
<wgt id='1629'> +1.3338935e+00 </wgt>
<wgt id='1630'> +1.3289558e+00 </wgt>
<wgt id='1631'> +1.3383581e+00 </wgt>
<wgt id='1632'> +1.3295880e+00 </wgt>
<wgt id='1633'> +1.3450212e+00 </wgt>
<wgt id='1634'> +1.3325013e+00 </wgt>
<wgt id='1635'> +1.3300521e+00 </wgt>
<wgt id='1636'> +1.3329671e+00 </wgt>
<wgt id='1637'> +1.3341224e+00 </wgt>
<wgt id='1638'> +1.3271766e+00 </wgt>
<wgt id='1639'> +1.3335028e+00 </wgt>
<wgt id='1640'> +1.3341165e+00 </wgt>
<wgt id='1641'> +1.3430713e+00 </wgt>
<wgt id='1642'> +1.3470973e+00 </wgt>
<wgt id='1643'> +1.3382727e+00 </wgt>
<wgt id='1644'> +1.3389156e+00 </wgt>
<wgt id='1645'> +1.3362671e+00 </wgt>
<wgt id='1646'> +1.3364142e+00 </wgt>
<wgt id='1647'> +1.3351997e+00 </wgt>
<wgt id='1648'> +1.3319913e+00 </wgt>
<wgt id='1649'> +1.3331991e+00 </wgt>
<wgt id='1650'> +1.3368836e+00 </wgt>
<wgt id='1651'> +1.3376223e+00 </wgt>
<wgt id='1652'> +1.3358520e+00 </wgt>
<wgt id='1653'> +1.3345128e+00 </wgt>
<wgt id='1654'> +1.3318261e+00 </wgt>
<wgt id='1655'> +1.3406789e+00 </wgt>
<wgt id='1656'> +1.3364421e+00 </wgt>
<wgt id='1657'> +1.3360952e+00 </wgt>
<wgt id='1658'> +1.3393287e+00 </wgt>
<wgt id='1659'> +1.3379893e+00 </wgt>
<wgt id='1660'> +1.3372003e+00 </wgt>
<wgt id='1661'> +1.3324012e+00 </wgt>
<wgt id='1662'> +1.3371180e+00 </wgt>
<wgt id='1663'> +1.3386935e+00 </wgt>
<wgt id='1664'> +1.3335984e+00 </wgt>
<wgt id='1665'> +1.3372156e+00 </wgt>
<wgt id='1666'> +1.3379030e+00 </wgt>
<wgt id='1667'> +1.3396066e+00 </wgt>
<wgt id='1668'> +1.3344043e+00 </wgt>
<wgt id='1669'> +1.3360381e+00 </wgt>
<wgt id='1670'> +1.3380114e+00 </wgt>
<wgt id='1671'> +1.3347481e+00 </wgt>
<wgt id='1672'> +1.3371222e+00 </wgt>
<wgt id='1673'> +1.3360316e+00 </wgt>
<wgt id='1674'> +1.3350666e+00 </wgt>
<wgt id='1675'> +1.3356199e+00 </wgt>
<wgt id='1676'> +1.3365354e+00 </wgt>
<wgt id='1677'> +1.3351929e+00 </wgt>
<wgt id='1678'> +1.3359216e+00 </wgt>
<wgt id='1679'> +1.3360528e+00 </wgt>
<wgt id='1680'> +1.3382970e+00 </wgt>
<wgt id='1681'> +1.3383765e+00 </wgt>
<wgt id='1682'> +1.3354117e+00 </wgt>
<wgt id='1683'> +1.3347748e+00 </wgt>
<wgt id='1684'> +1.3375068e+00 </wgt>
<wgt id='1685'> +1.3392303e+00 </wgt>
<wgt id='1686'> +1.3357535e+00 </wgt>
<wgt id='1687'> +1.3366195e+00 </wgt>
<wgt id='1688'> +1.3372127e+00 </wgt>
<wgt id='1689'> +1.3353992e+00 </wgt>
<wgt id='1690'> +1.3378639e+00 </wgt>
<wgt id='1691'> +1.3372010e+00 </wgt>
<wgt id='1692'> +1.3357856e+00 </wgt>
<wgt id='1693'> +1.3371371e+00 </wgt>
<wgt id='1694'> +1.3368525e+00 </wgt>
<wgt id='1695'> +1.3375955e+00 </wgt>
<wgt id='1696'> +1.3358263e+00 </wgt>
<wgt id='1697'> +1.3357534e+00 </wgt>
<wgt id='1698'> +1.3359679e+00 </wgt>
<wgt id='1699'> +1.3353903e+00 </wgt>
<wgt id='1700'> +1.3367240e+00 </wgt>
<wgt id='1701'> +1.3361393e+00 </wgt>
<wgt id='1702'> +1.3347118e+00 </wgt>
<wgt id='1703'> +1.3372015e+00 </wgt>
<wgt id='1704'> +1.3368694e+00 </wgt>
<wgt id='1705'> +1.3369248e+00 </wgt>
<wgt id='1706'> +1.3354151e+00 </wgt>
<wgt id='1707'> +1.3355204e+00 </wgt>
<wgt id='1708'> +1.3360930e+00 </wgt>
<wgt id='1709'> +1.3366176e+00 </wgt>
<wgt id='1710'> +1.3368089e+00 </wgt>
<wgt id='1711'> +1.3364211e+00 </wgt>
<wgt id='1712'> +1.3370123e+00 </wgt>
<wgt id='1713'> +1.3158101e+00 </wgt>
<wgt id='1714'> +1.3624728e+00 </wgt>
<wgt id='1715'> +1.3942210e+00 </wgt>
<wgt id='1716'> +1.3550497e+00 </wgt>
<wgt id='1717'> +1.4400555e+00 </wgt>
<wgt id='1718'> +1.3980015e+00 </wgt>
<wgt id='1719'> +1.3803157e+00 </wgt>
<wgt id='1720'> +1.4401481e+00 </wgt>
<wgt id='1721'> +1.4628097e+00 </wgt>
<wgt id='1722'> +1.4184898e+00 </wgt>
<wgt id='1723'> +1.3712931e+00 </wgt>
<wgt id='1724'> +1.4016964e+00 </wgt>
<wgt id='1725'> +1.3674410e+00 </wgt>
<wgt id='1726'> +1.3608104e+00 </wgt>
<wgt id='1727'> +1.3962193e+00 </wgt>
<wgt id='1728'> +1.3908509e+00 </wgt>
<wgt id='1729'> +1.3758665e+00 </wgt>
<wgt id='1730'> +1.3652297e+00 </wgt>
<wgt id='1731'> +1.3820153e+00 </wgt>
<wgt id='1732'> +1.4047803e+00 </wgt>
<wgt id='1733'> +1.3871058e+00 </wgt>
<wgt id='1734'> +1.4413890e+00 </wgt>
<wgt id='1735'> +1.3656968e+00 </wgt>
<wgt id='1736'> +1.4082268e+00 </wgt>
<wgt id='1737'> +1.3836236e+00 </wgt>
<wgt id='1738'> +1.4412519e+00 </wgt>
<wgt id='1739'> +1.4418750e+00 </wgt>
<wgt id='1740'> +1.4112491e+00 </wgt>
<wgt id='1741'> +1.3952012e+00 </wgt>
<wgt id='1742'> +1.3627064e+00 </wgt>
<wgt id='1743'> +1.3980430e+00 </wgt>
<wgt id='1744'> +1.3842205e+00 </wgt>
<wgt id='1745'> +1.4193627e+00 </wgt>
<wgt id='1746'> +1.3525952e+00 </wgt>
<wgt id='1747'> +1.3980397e+00 </wgt>
<wgt id='1748'> +1.3849832e+00 </wgt>
<wgt id='1749'> +1.3465754e+00 </wgt>
<wgt id='1750'> +1.3510575e+00 </wgt>
<wgt id='1751'> +1.4425410e+00 </wgt>
<wgt id='1752'> +1.4382419e+00 </wgt>
<wgt id='1753'> +1.3885930e+00 </wgt>
<wgt id='1754'> +1.3562918e+00 </wgt>
<wgt id='1755'> +1.3678125e+00 </wgt>
<wgt id='1756'> +1.4713545e+00 </wgt>
<wgt id='1757'> +1.3834913e+00 </wgt>
<wgt id='1758'> +1.3875865e+00 </wgt>
<wgt id='1759'> +1.3840576e+00 </wgt>
<wgt id='1760'> +1.3669011e+00 </wgt>
<wgt id='1761'> +1.3698718e+00 </wgt>
<wgt id='1762'> +1.3962193e+00 </wgt>
<wgt id='1763'> +1.4551350e+00 </wgt>
<wgt id='1764'> +1.3810552e+00 </wgt>
<wgt id='1765'> +1.4063191e+00 </wgt>
<wgt id='1766'> +1.3737478e+00 </wgt>
<wgt id='1767'> +1.3754041e+00 </wgt>
<wgt id='1768'> +1.3030524e+00 </wgt>
<wgt id='1769'> +1.3955194e+00 </wgt>
<wgt id='1770'> +1.3777919e+00 </wgt>
<wgt id='1771'> +1.4186795e+00 </wgt>
<wgt id='1772'> +1.3952211e+00 </wgt>
<wgt id='1773'> +1.4197104e+00 </wgt>
<wgt id='1774'> +1.4303220e+00 </wgt>
<wgt id='1775'> +1.4226520e+00 </wgt>
<wgt id='1776'> +1.3976511e+00 </wgt>
<wgt id='1777'> +1.3706368e+00 </wgt>
<wgt id='1778'> +1.4041632e+00 </wgt>
<wgt id='1779'> +1.4119408e+00 </wgt>
<wgt id='1780'> +1.4519541e+00 </wgt>
<wgt id='1781'> +1.4038198e+00 </wgt>
<wgt id='1782'> +1.3554979e+00 </wgt>
<wgt id='1783'> +1.4102602e+00 </wgt>
<wgt id='1784'> +1.3782070e+00 </wgt>
<wgt id='1785'> +1.3992042e+00 </wgt>
<wgt id='1786'> +1.3690428e+00 </wgt>
<wgt id='1787'> +1.3777833e+00 </wgt>
<wgt id='1788'> +1.3869630e+00 </wgt>
<wgt id='1789'> +1.3930007e+00 </wgt>
<wgt id='1790'> +1.3969598e+00 </wgt>
<wgt id='1791'> +1.4163615e+00 </wgt>
<wgt id='1792'> +1.4204780e+00 </wgt>
<wgt id='1793'> +1.4173739e+00 </wgt>
<wgt id='1794'> +1.3981731e+00 </wgt>
<wgt id='1795'> +1.4263302e+00 </wgt>
<wgt id='1796'> +1.3698937e+00 </wgt>
<wgt id='1797'> +1.4097853e+00 </wgt>
<wgt id='1798'> +1.4393057e+00 </wgt>
<wgt id='1799'> +1.3838996e+00 </wgt>
<wgt id='1800'> +1.3884186e+00 </wgt>
<wgt id='1801'> +1.3951153e+00 </wgt>
<wgt id='1802'> +1.3877610e+00 </wgt>
<wgt id='1803'> +1.3818434e+00 </wgt>
<wgt id='1804'> +1.3993773e+00 </wgt>
<wgt id='1805'> +1.4015261e+00 </wgt>
<wgt id='1806'> +1.4290929e+00 </wgt>
<wgt id='1807'> +1.4044500e+00 </wgt>
<wgt id='1808'> +1.3370767e+00 </wgt>
<wgt id='1809'> +1.4216283e+00 </wgt>
<wgt id='1810'> +1.3802578e+00 </wgt>
<wgt id='1811'> +1.3670102e+00 </wgt>
<wgt id='1812'> +1.3617181e+00 </wgt>
<wgt id='1813'> +1.3809735e+00 </wgt>
<wgt id='1814'> +1.3405668e+00 </wgt>
<wgt id='1815'> +1.3619858e+00 </wgt>
<wgt id='1816'> +1.3591322e+00 </wgt>
<wgt id='1817'> +1.3744242e+00 </wgt>
<wgt id='1818'> +1.3842678e+00 </wgt>
<wgt id='1819'> +1.3939804e+00 </wgt>
<wgt id='1820'> +1.3265948e+00 </wgt>
<wgt id='1821'> +1.3854753e+00 </wgt>
<wgt id='1822'> +1.3230028e+00 </wgt>
<wgt id='1823'> +1.3653647e+00 </wgt>
<wgt id='1824'> +1.3507912e+00 </wgt>
<wgt id='1825'> +1.3332275e+00 </wgt>
<wgt id='1826'> +1.3890503e+00 </wgt>
<wgt id='1827'> +1.4098077e+00 </wgt>
<wgt id='1828'> +1.3410401e+00 </wgt>
<wgt id='1829'> +1.3225698e+00 </wgt>
<wgt id='1830'> +1.4152303e+00 </wgt>
<wgt id='1831'> +1.3688593e+00 </wgt>
<wgt id='1832'> +1.3473391e+00 </wgt>
<wgt id='1833'> +1.4184711e+00 </wgt>
<wgt id='1834'> +1.3549514e+00 </wgt>
<wgt id='1835'> +1.3564262e+00 </wgt>
<wgt id='1836'> +1.3356085e+00 </wgt>
<wgt id='1837'> +1.3454784e+00 </wgt>
<wgt id='1838'> +1.3451581e+00 </wgt>
<wgt id='1839'> +1.3414700e+00 </wgt>
<wgt id='1840'> +1.3558455e+00 </wgt>
<wgt id='1841'> +1.3573685e+00 </wgt>
<wgt id='1842'> +1.3231473e+00 </wgt>
<wgt id='1843'> +1.3798232e+00 </wgt>
<wgt id='1844'> +1.4117794e+00 </wgt>
<wgt id='1845'> +1.3774011e+00 </wgt>
<wgt id='1846'> +1.3265417e+00 </wgt>
<wgt id='1847'> +1.3375847e+00 </wgt>
<wgt id='1848'> +1.3487106e+00 </wgt>
<wgt id='1849'> +1.3472359e+00 </wgt>
<wgt id='1850'> +1.3196024e+00 </wgt>
<wgt id='1851'> +1.3392520e+00 </wgt>
<wgt id='1852'> +1.3428913e+00 </wgt>
<wgt id='1853'> +1.3447008e+00 </wgt>
<wgt id='1854'> +1.3514303e+00 </wgt>
<wgt id='1855'> +1.3539951e+00 </wgt>
<wgt id='1856'> +1.3422440e+00 </wgt>
<wgt id='1857'> +1.3818016e+00 </wgt>
<wgt id='1858'> +1.3558832e+00 </wgt>
<wgt id='1859'> +1.3286817e+00 </wgt>
<wgt id='1860'> +1.3411706e+00 </wgt>
<wgt id='1861'> +1.3891114e+00 </wgt>
<wgt id='1862'> +1.3426956e+00 </wgt>
<wgt id='1863'> +1.3607279e+00 </wgt>
<wgt id='1864'> +1.3688457e+00 </wgt>
<wgt id='1865'> +1.3569076e+00 </wgt>
<wgt id='1866'> +1.3723426e+00 </wgt>
<wgt id='1867'> +1.3639476e+00 </wgt>
<wgt id='1868'> +1.3505882e+00 </wgt>
<wgt id='1869'> +1.3625821e+00 </wgt>
<wgt id='1870'> +1.3463040e+00 </wgt>
<wgt id='1871'> +1.3613274e+00 </wgt>
<wgt id='1872'> +1.3951246e+00 </wgt>
<wgt id='1873'> +1.3238828e+00 </wgt>
<wgt id='1874'> +1.3801897e+00 </wgt>
<wgt id='1875'> +1.3773457e+00 </wgt>
<wgt id='1876'> +1.3523940e+00 </wgt>
<wgt id='1877'> +1.3406337e+00 </wgt>
<wgt id='1878'> +1.3811940e+00 </wgt>
<wgt id='1879'> +1.3628894e+00 </wgt>
<wgt id='1880'> +1.3721326e+00 </wgt>
<wgt id='1881'> +1.3126431e+00 </wgt>
<wgt id='1882'> +1.3472698e+00 </wgt>
<wgt id='1883'> +1.3853934e+00 </wgt>
<wgt id='1884'> +1.3443752e+00 </wgt>
<wgt id='1885'> +1.3645669e+00 </wgt>
<wgt id='1886'> +1.3336641e+00 </wgt>
<wgt id='1887'> +1.3561406e+00 </wgt>
<wgt id='1888'> +1.3530109e+00 </wgt>
<wgt id='1889'> +1.4263393e+00 </wgt>
<wgt id='1890'> +1.3676273e+00 </wgt>
<wgt id='1891'> +1.4042430e+00 </wgt>
<wgt id='1892'> +1.3502076e+00 </wgt>
<wgt id='1893'> +1.3284152e+00 </wgt>
<wgt id='1894'> +1.3266244e+00 </wgt>
<wgt id='1895'> +1.3610123e+00 </wgt>
<wgt id='1896'> +1.3398088e+00 </wgt>
<wgt id='1897'> +1.3563027e+00 </wgt>
<wgt id='1898'> +1.3719688e+00 </wgt>
<wgt id='1899'> +1.3437284e+00 </wgt>
<wgt id='1900'> +1.3787165e+00 </wgt>
<wgt id='1901'> +1.4012958e+00 </wgt>
<wgt id='1902'> +1.3911669e+00 </wgt>
<wgt id='1903'> +1.3967667e+00 </wgt>
<wgt id='1904'> +1.3780215e+00 </wgt>
<wgt id='1905'> +1.3404172e+00 </wgt>
<wgt id='1906'> +1.3797134e+00 </wgt>
<wgt id='1907'> +1.3356913e+00 </wgt>
<wgt id='1908'> +1.3138369e+00 </wgt>
<wgt id='1909'> +1.3594441e+00 </wgt>
<wgt id='1910'> +1.3960412e+00 </wgt>
<wgt id='1911'> +1.3931201e+00 </wgt>
<wgt id='1912'> +1.3365507e+00 </wgt>
<wgt id='1913'> +1.3676213e+00 </wgt>
<wgt id='1914'> +1.3269471e+00 </wgt>
<wgt id='1915'> +1.3456475e+00 </wgt>
<wgt id='1916'> +1.3339404e+00 </wgt>
<wgt id='1917'> +1.3475547e+00 </wgt>
<wgt id='1918'> +1.3681152e+00 </wgt>
<wgt id='1919'> +1.3591322e+00 </wgt>
<wgt id='1920'> +1.3744242e+00 </wgt>
<wgt id='1921'> +1.3842678e+00 </wgt>
<wgt id='1922'> +1.3939804e+00 </wgt>
<wgt id='1923'> +1.3265948e+00 </wgt>
<wgt id='1924'> +1.3854753e+00 </wgt>
<wgt id='1925'> +1.3230028e+00 </wgt>
<wgt id='1926'> +1.3653647e+00 </wgt>
<wgt id='1927'> +1.3507912e+00 </wgt>
<wgt id='1928'> +1.3332275e+00 </wgt>
<wgt id='1929'> +1.3890503e+00 </wgt>
<wgt id='1930'> +1.4098077e+00 </wgt>
<wgt id='1931'> +1.3410401e+00 </wgt>
<wgt id='1932'> +1.3225698e+00 </wgt>
<wgt id='1933'> +1.4152303e+00 </wgt>
<wgt id='1934'> +1.3688593e+00 </wgt>
<wgt id='1935'> +1.3473391e+00 </wgt>
<wgt id='1936'> +1.4184711e+00 </wgt>
<wgt id='1937'> +1.3549514e+00 </wgt>
<wgt id='1938'> +1.3564262e+00 </wgt>
<wgt id='1939'> +1.3356085e+00 </wgt>
<wgt id='1940'> +1.3454784e+00 </wgt>
<wgt id='1941'> +1.3451581e+00 </wgt>
<wgt id='1942'> +1.3414700e+00 </wgt>
<wgt id='1943'> +1.3558455e+00 </wgt>
<wgt id='1944'> +1.3573685e+00 </wgt>
<wgt id='1945'> +1.3231473e+00 </wgt>
<wgt id='1946'> +1.3798232e+00 </wgt>
<wgt id='1947'> +1.4117794e+00 </wgt>
<wgt id='1948'> +1.3774011e+00 </wgt>
<wgt id='1949'> +1.3265417e+00 </wgt>
<wgt id='1950'> +1.3375847e+00 </wgt>
<wgt id='1951'> +1.3487106e+00 </wgt>
<wgt id='1952'> +1.3472359e+00 </wgt>
<wgt id='1953'> +1.3196024e+00 </wgt>
<wgt id='1954'> +1.3392520e+00 </wgt>
<wgt id='1955'> +1.3428913e+00 </wgt>
<wgt id='1956'> +1.3447008e+00 </wgt>
<wgt id='1957'> +1.3514303e+00 </wgt>
<wgt id='1958'> +1.3539951e+00 </wgt>
<wgt id='1959'> +1.3422440e+00 </wgt>
<wgt id='1960'> +1.3818016e+00 </wgt>
<wgt id='1961'> +1.3558832e+00 </wgt>
<wgt id='1962'> +1.3286817e+00 </wgt>
<wgt id='1963'> +1.3411706e+00 </wgt>
<wgt id='1964'> +1.3891114e+00 </wgt>
<wgt id='1965'> +1.3426956e+00 </wgt>
<wgt id='1966'> +1.3607279e+00 </wgt>
<wgt id='1967'> +1.3688457e+00 </wgt>
<wgt id='1968'> +1.3569076e+00 </wgt>
<wgt id='1969'> +1.3723426e+00 </wgt>
<wgt id='1970'> +1.3639476e+00 </wgt>
<wgt id='1971'> +1.3505882e+00 </wgt>
<wgt id='1972'> +1.3625821e+00 </wgt>
<wgt id='1973'> +1.3463040e+00 </wgt>
<wgt id='1974'> +1.3613274e+00 </wgt>
<wgt id='1975'> +1.3951246e+00 </wgt>
<wgt id='1976'> +1.3238828e+00 </wgt>
<wgt id='1977'> +1.3801897e+00 </wgt>
<wgt id='1978'> +1.3773457e+00 </wgt>
<wgt id='1979'> +1.3523940e+00 </wgt>
<wgt id='1980'> +1.3406337e+00 </wgt>
<wgt id='1981'> +1.3811940e+00 </wgt>
<wgt id='1982'> +1.3628894e+00 </wgt>
<wgt id='1983'> +1.3721326e+00 </wgt>
<wgt id='1984'> +1.3126431e+00 </wgt>
<wgt id='1985'> +1.3472698e+00 </wgt>
<wgt id='1986'> +1.3853934e+00 </wgt>
<wgt id='1987'> +1.3443752e+00 </wgt>
<wgt id='1988'> +1.3645669e+00 </wgt>
<wgt id='1989'> +1.3336641e+00 </wgt>
<wgt id='1990'> +1.3561406e+00 </wgt>
<wgt id='1991'> +1.3530109e+00 </wgt>
<wgt id='1992'> +1.4263393e+00 </wgt>
<wgt id='1993'> +1.3676273e+00 </wgt>
<wgt id='1994'> +1.4042430e+00 </wgt>
<wgt id='1995'> +1.3502076e+00 </wgt>
<wgt id='1996'> +1.3284152e+00 </wgt>
<wgt id='1997'> +1.3266244e+00 </wgt>
<wgt id='1998'> +1.3610123e+00 </wgt>
<wgt id='1999'> +1.3398088e+00 </wgt>
<wgt id='2000'> +1.3563027e+00 </wgt>
<wgt id='2001'> +1.3719688e+00 </wgt>
<wgt id='2002'> +1.3437284e+00 </wgt>
<wgt id='2003'> +1.3787165e+00 </wgt>
<wgt id='2004'> +1.4012958e+00 </wgt>
<wgt id='2005'> +1.3911669e+00 </wgt>
<wgt id='2006'> +1.3967667e+00 </wgt>
<wgt id='2007'> +1.3780215e+00 </wgt>
<wgt id='2008'> +1.3404172e+00 </wgt>
<wgt id='2009'> +1.3797134e+00 </wgt>
<wgt id='2010'> +1.3356913e+00 </wgt>
<wgt id='2011'> +1.3138369e+00 </wgt>
<wgt id='2012'> +1.3594441e+00 </wgt>
<wgt id='2013'> +1.3960412e+00 </wgt>
<wgt id='2014'> +1.3931201e+00 </wgt>
<wgt id='2015'> +1.3365507e+00 </wgt>
<wgt id='2016'> +1.3676213e+00 </wgt>
<wgt id='2017'> +1.3269471e+00 </wgt>
<wgt id='2018'> +1.3456475e+00 </wgt>
<wgt id='2019'> +1.3339404e+00 </wgt>
<wgt id='2020'> +1.3464214e+00 </wgt>
<wgt id='2021'> +1.3642423e+00 </wgt>
<wgt id='2022'> +1.3503306e+00 </wgt>
</rwgt>
</event>
<event>
13      1 +1.3581722e+00 1.42631000e+02 7.81860800e-03 1.09983100e-01
       21 -1    0    0  502  503 +0.0000000000e+00 +0.0000000000e+00 +5.8068989437e+02 5.8068989437e+02 0.0000000000e+00 0.0000e+00 -1.0000e+00
        2 -1    0    0  501    0 +0.0000000000e+00 +0.0000000000e+00 -6.8061676822e+02 6.8061676822e+02 2.5500000000e-03 0.0000e+00 -1.0000e+00
  8000001  2    1    2  502    0 +9.5164069846e+01 +1.0460837503e+02 -8.2091746708e+01 6.2188424496e+02 6.0000153911e+02 0.0000e+00 0.0000e+00
        1  1    1    2  501    0 -1.0251001684e+02 -9.9295201804e+01 -3.1304200498e+02 3.4403944187e+02 5.0400000000e-03 0.0000e+00 -1.0000e+00
       -5  1    1    2    0  503 +7.3459469909e+00 -5.3131732268e+00 +2.9520687784e+02 2.9538297576e+02 4.6700000000e+00 0.0000e+00 -1.0000e+00
        6  2    3    3  502    0 -8.6236890172e+01 -1.5738066760e+02 -1.4038773708e+02 2.8557990746e+02 1.7216762489e+02 0.0000e+00 0.0000e+00
        5  1    6    6  502    0 -5.7890940132e+01 -5.8004178191e+01 -1.2915640199e+02 1.5303277660e+02 4.6700000000e+00 0.0000e+00 -1.0000e+00
       24  2    6    6    0    0 -2.8345950040e+01 -9.9376489408e+01 -1.1231335094e+01 1.3254713086e+02 8.2240011434e+01 0.0000e+00 0.0000e+00
       12  1    8    8    0    0 -1.7556323838e+01 -1.1312746904e+02 -7.9010420142e+00 1.1475397693e+02 0.0000000000e+00 0.0000e+00 -1.0000e+00
      -11  1    8    8    0    0 -1.0789626203e+01 +1.3750979629e+01 -3.3302930800e+00 1.7793153926e+01 5.1100000000e-04 0.0000e+00 1.0000e+00
       23  2    3    3    0    0 +1.8140096002e+02 +2.6198904263e+02 +5.8295990377e+01 3.3630433750e+02 9.0319533741e+01 0.0000e+00 0.0000e+00
       16  1   11   11    0    0 +1.6999603800e+02 +2.5886024400e+02 +7.2257740861e+01 3.1800701246e+02 0.0000000000e+00 0.0000e+00 -1.0000e+00
      -16  1   11   11    0    0 +1.1404922021e+01 +3.1287986294e+00 -1.3961750484e+01 1.8297325043e+01 0.0000000000e+00 0.0000e+00 1.0000e+00
<mgrwt>
<rscale>  1 0.10635532e+03</rscale>
<asrwt>0</asrwt>
<pdfrwt beam="1">  1       21 0.89336907e-01 0.79305738e+02</pdfrwt>
<pdfrwt beam="2">  1        2 0.10471027e+00 0.14263098e+03</pdfrwt>
<totfact> 0.70103769e+02</totfact>
</mgrwt>
<rwgt>
<wgt id='1001'> +1.3581722e+00 </wgt>
<wgt id='1002'> +8.4444078e-01 </wgt>
<wgt id='1003'> +8.4411166e-01 </wgt>
<wgt id='1004'> +9.8873044e-01 </wgt>
<wgt id='1005'> +7.4236005e-01 </wgt>
<wgt id='1006'> +1.2272563e+00 </wgt>
<wgt id='1007'> +7.8046522e-01 </wgt>
<wgt id='1008'> +7.8017401e-01 </wgt>
<wgt id='1009'> +9.0740009e-01 </wgt>
<wgt id='1010'> +6.8973697e-01 </wgt>
<wgt id='1011'> +1.5215092e+00 </wgt>
<wgt id='1012'> +9.2014641e-01 </wgt>
<wgt id='1013'> +9.1976946e-01 </wgt>
<wgt id='1014'> +1.0865634e+00 </wgt>
<wgt id='1015'> +8.0388871e-01 </wgt>
<wgt id='1016'> +1.2523010e+00 </wgt>
<wgt id='1017'> +7.8863785e-01 </wgt>
<wgt id='1018'> +7.8833716e-01 </wgt>
<wgt id='1019'> +9.1976946e-01 </wgt>
<wgt id='1020'> +6.9548469e-01 </wgt>
<wgt id='1021'> +1.1315901e+00 </wgt>
<wgt id='1022'> +7.2888998e-01 </wgt>
<wgt id='1023'> +7.2862417e-01 </wgt>
<wgt id='1024'> +8.4411166e-01 </wgt>
<wgt id='1025'> +6.4618443e-01 </wgt>
<wgt id='1026'> +1.4029056e+00 </wgt>
<wgt id='1027'> +8.5934066e-01 </wgt>
<wgt id='1028'> +8.5899589e-01 </wgt>
<wgt id='1029'> +1.0107789e+00 </wgt>
<wgt id='1030'> +7.5312821e-01 </wgt>
<wgt id='1031'> +1.4802951e+00 </wgt>
<wgt id='1032'> +9.0776480e-01 </wgt>
<wgt id='1033'> +9.0740009e-01 </wgt>
<wgt id='1034'> +1.0672819e+00 </wgt>
<wgt id='1035'> +7.9523272e-01 </wgt>
<wgt id='1036'> +1.3376076e+00 </wgt>
<wgt id='1037'> +8.3899177e-01 </wgt>
<wgt id='1038'> +8.3866862e-01 </wgt>
<wgt id='1039'> +9.7949008e-01 </wgt>
<wgt id='1040'> +7.3886170e-01 </wgt>
<wgt id='1041'> +1.6583189e+00 </wgt>
<wgt id='1042'> +9.8914755e-01 </wgt>
<wgt id='1043'> +9.8873044e-01 </wgt>
<wgt id='1044'> +1.1728873e+00 </wgt>
<wgt id='1045'> +8.6114360e-01 </wgt>
<wgt id='1046'> +1.3581722e+00 </wgt>
<wgt id='1047'> +1.3581722e+00 </wgt>
<wgt id='1048'> +1.3581722e+00 </wgt>
<wgt id='1049'> +1.3558183e+00 </wgt>
<wgt id='1050'> +1.3566668e+00 </wgt>
<wgt id='1051'> +1.3617740e+00 </wgt>
<wgt id='1052'> +1.3576083e+00 </wgt>
<wgt id='1053'> +1.3597539e+00 </wgt>
<wgt id='1054'> +1.3562941e+00 </wgt>
<wgt id='1055'> +1.3549541e+00 </wgt>
<wgt id='1056'> +1.3538331e+00 </wgt>
<wgt id='1057'> +1.3608354e+00 </wgt>
<wgt id='1058'> +1.3565495e+00 </wgt>
<wgt id='1059'> +1.3627618e+00 </wgt>
<wgt id='1060'> +1.3539886e+00 </wgt>
<wgt id='1061'> +1.3590400e+00 </wgt>
<wgt id='1062'> +1.3613349e+00 </wgt>
<wgt id='1063'> +1.3591596e+00 </wgt>
<wgt id='1064'> +1.3611824e+00 </wgt>
<wgt id='1065'> +1.3641868e+00 </wgt>
<wgt id='1066'> +1.3561531e+00 </wgt>
<wgt id='1067'> +1.3484465e+00 </wgt>
<wgt id='1068'> +1.3591016e+00 </wgt>
<wgt id='1069'> +1.3546223e+00 </wgt>
<wgt id='1070'> +1.3639689e+00 </wgt>
<wgt id='1071'> +1.3626487e+00 </wgt>
<wgt id='1072'> +1.3562312e+00 </wgt>
<wgt id='1073'> +1.3569149e+00 </wgt>
<wgt id='1074'> +1.3548500e+00 </wgt>
<wgt id='1075'> +1.3559729e+00 </wgt>
<wgt id='1076'> +1.3608099e+00 </wgt>
<wgt id='1077'> +1.3599917e+00 </wgt>
<wgt id='1078'> +1.3594976e+00 </wgt>
<wgt id='1079'> +1.3615330e+00 </wgt>
<wgt id='1080'> +1.3589500e+00 </wgt>
<wgt id='1081'> +1.3594814e+00 </wgt>
<wgt id='1082'> +1.3584136e+00 </wgt>
<wgt id='1083'> +1.3573469e+00 </wgt>
<wgt id='1084'> +1.3569615e+00 </wgt>
<wgt id='1085'> +1.3603143e+00 </wgt>
<wgt id='1086'> +1.3561990e+00 </wgt>
<wgt id='1087'> +1.3573350e+00 </wgt>
<wgt id='1088'> +1.3613420e+00 </wgt>
<wgt id='1089'> +1.3619923e+00 </wgt>
<wgt id='1090'> +1.3614615e+00 </wgt>
<wgt id='1091'> +1.3564886e+00 </wgt>
<wgt id='1092'> +1.3578571e+00 </wgt>
<wgt id='1093'> +1.3570484e+00 </wgt>
<wgt id='1094'> +1.3571785e+00 </wgt>
<wgt id='1095'> +1.3563705e+00 </wgt>
<wgt id='1096'> +1.3546926e+00 </wgt>
<wgt id='1097'> +1.3591556e+00 </wgt>
<wgt id='1098'> +1.3558287e+00 </wgt>
<wgt id='1099'> +1.3574888e+00 </wgt>
<wgt id='1100'> +1.3604220e+00 </wgt>
<wgt id='1101'> +1.3587665e+00 </wgt>
<wgt id='1102'> +1.3596028e+00 </wgt>
<wgt id='1103'> +1.3588936e+00 </wgt>
<wgt id='1104'> +1.3580594e+00 </wgt>
<wgt id='1105'> +1.3603556e+00 </wgt>
<wgt id='1106'> +1.3591310e+00 </wgt>
<wgt id='1107'> +1.3589266e+00 </wgt>
<wgt id='1108'> +1.3576929e+00 </wgt>
<wgt id='1109'> +1.3585511e+00 </wgt>
<wgt id='1110'> +1.3584300e+00 </wgt>
<wgt id='1111'> +1.3570633e+00 </wgt>
<wgt id='1112'> +1.3571983e+00 </wgt>
<wgt id='1113'> +1.3595564e+00 </wgt>
<wgt id='1114'> +1.3578728e+00 </wgt>
<wgt id='1115'> +1.3583003e+00 </wgt>
<wgt id='1116'> +1.3577488e+00 </wgt>
<wgt id='1117'> +1.3587279e+00 </wgt>
<wgt id='1118'> +1.3577480e+00 </wgt>
<wgt id='1119'> +1.3575013e+00 </wgt>
<wgt id='1120'> +1.3588462e+00 </wgt>
<wgt id='1121'> +1.3566393e+00 </wgt>
<wgt id='1122'> +1.3581365e+00 </wgt>
<wgt id='1123'> +1.3573455e+00 </wgt>
<wgt id='1124'> +1.3582771e+00 </wgt>
<wgt id='1125'> +1.3600029e+00 </wgt>
<wgt id='1126'> +1.3588806e+00 </wgt>
<wgt id='1127'> +1.3579383e+00 </wgt>
<wgt id='1128'> +1.3590175e+00 </wgt>
<wgt id='1129'> +1.3571356e+00 </wgt>
<wgt id='1130'> +1.3580105e+00 </wgt>
<wgt id='1131'> +1.3583401e+00 </wgt>
<wgt id='1132'> +1.3587313e+00 </wgt>
<wgt id='1133'> +1.3587052e+00 </wgt>
<wgt id='1134'> +1.3578406e+00 </wgt>
<wgt id='1135'> +1.3574383e+00 </wgt>
<wgt id='1136'> +1.3575790e+00 </wgt>
<wgt id='1137'> +1.3581137e+00 </wgt>
<wgt id='1138'> +1.3582654e+00 </wgt>
<wgt id='1139'> +1.3580782e+00 </wgt>
<wgt id='1140'> +1.3590666e+00 </wgt>
<wgt id='1141'> +1.3583981e+00 </wgt>
<wgt id='1142'> +1.3581911e+00 </wgt>
<wgt id='1143'> +1.3588171e+00 </wgt>
<wgt id='1144'> +1.3577111e+00 </wgt>
<wgt id='1145'> +1.3585048e+00 </wgt>
<wgt id='1146'> +1.3581634e+00 </wgt>
<wgt id='1147'> +1.3585244e+00 </wgt>
<wgt id='1148'> +1.3581722e+00 </wgt>
<wgt id='1149'> +1.3199014e+00 </wgt>
<wgt id='1150'> +1.3339649e+00 </wgt>
<wgt id='1151'> +1.3275721e+00 </wgt>
<wgt id='1152'> +1.2860045e+00 </wgt>
<wgt id='1153'> +1.3041899e+00 </wgt>
<wgt id='1154'> +1.3221135e+00 </wgt>
<wgt id='1155'> +1.3282277e+00 </wgt>
<wgt id='1156'> +1.3364030e+00 </wgt>
<wgt id='1157'> +1.3287563e+00 </wgt>
<wgt id='1158'> +1.3063213e+00 </wgt>
<wgt id='1159'> +1.2893100e+00 </wgt>
<wgt id='1160'> +1.2979032e+00 </wgt>
<wgt id='1161'> +1.3317131e+00 </wgt>
<wgt id='1162'> +1.2990987e+00 </wgt>
<wgt id='1163'> +1.3511741e+00 </wgt>
<wgt id='1164'> +1.2967265e+00 </wgt>
<wgt id='1165'> +1.3097673e+00 </wgt>
<wgt id='1166'> +1.3277974e+00 </wgt>
<wgt id='1167'> +1.3222616e+00 </wgt>
<wgt id='1168'> +1.3180305e+00 </wgt>
<wgt id='1169'> +1.2960859e+00 </wgt>
<wgt id='1170'> +1.3019067e+00 </wgt>
<wgt id='1171'> +1.3000767e+00 </wgt>
<wgt id='1172'> +1.3243059e+00 </wgt>
<wgt id='1173'> +1.3266464e+00 </wgt>
<wgt id='1174'> +1.3402770e+00 </wgt>
<wgt id='1175'> +1.3295432e+00 </wgt>
<wgt id='1176'> +1.2689847e+00 </wgt>
<wgt id='1177'> +1.3314649e+00 </wgt>
<wgt id='1178'> +1.3282023e+00 </wgt>
<wgt id='1179'> +1.3207187e+00 </wgt>
<wgt id='1180'> +1.3179168e+00 </wgt>
<wgt id='1181'> +1.3090035e+00 </wgt>
<wgt id='1182'> +1.3281846e+00 </wgt>
<wgt id='1183'> +1.3424090e+00 </wgt>
<wgt id='1184'> +1.2653527e+00 </wgt>
<wgt id='1185'> +1.3224281e+00 </wgt>
<wgt id='1186'> +1.2897524e+00 </wgt>
<wgt id='1187'> +1.3172325e+00 </wgt>
<wgt id='1188'> +1.3112991e+00 </wgt>
<wgt id='1189'> +1.3368486e+00 </wgt>
<wgt id='1190'> +1.3317463e+00 </wgt>
<wgt id='1191'> +1.3498548e+00 </wgt>
<wgt id='1192'> +1.3208380e+00 </wgt>
<wgt id='1193'> +1.3478008e+00 </wgt>
<wgt id='1194'> +1.3364292e+00 </wgt>
<wgt id='1195'> +1.3207280e+00 </wgt>
<wgt id='1196'> +1.3373691e+00 </wgt>
<wgt id='1197'> +1.3572511e+00 </wgt>
<wgt id='1198'> +1.3051387e+00 </wgt>
<wgt id='1199'> +1.2886560e+00 </wgt>
<wgt id='1200'> +1.3149309e+00 </wgt>
<wgt id='1201'> +1.3154382e+00 </wgt>
<wgt id='1202'> +1.3268505e+00 </wgt>
<wgt id='1203'> +1.3023631e+00 </wgt>
<wgt id='1204'> +1.3613430e+00 </wgt>
<wgt id='1205'> +1.3231677e+00 </wgt>
<wgt id='1206'> +1.3153182e+00 </wgt>
<wgt id='1207'> +1.3518238e+00 </wgt>
<wgt id='1208'> +1.3179028e+00 </wgt>
<wgt id='1209'> +1.3315836e+00 </wgt>
<wgt id='1210'> +1.2961255e+00 </wgt>
<wgt id='1211'> +1.3185849e+00 </wgt>
<wgt id='1212'> +1.3104485e+00 </wgt>
<wgt id='1213'> +1.3556206e+00 </wgt>
<wgt id='1214'> +1.3178959e+00 </wgt>
<wgt id='1215'> +1.3789313e+00 </wgt>
<wgt id='1216'> +1.3275080e+00 </wgt>
<wgt id='1217'> +1.3100515e+00 </wgt>
<wgt id='1218'> +1.3443218e+00 </wgt>
<wgt id='1219'> +1.3254776e+00 </wgt>
<wgt id='1220'> +1.2993424e+00 </wgt>
<wgt id='1221'> +1.2856078e+00 </wgt>
<wgt id='1222'> +1.3045927e+00 </wgt>
<wgt id='1223'> +1.2814791e+00 </wgt>
<wgt id='1224'> +1.3208079e+00 </wgt>
<wgt id='1225'> +1.3415359e+00 </wgt>
<wgt id='1226'> +1.3112381e+00 </wgt>
<wgt id='1227'> +1.3071938e+00 </wgt>
<wgt id='1228'> +1.3134505e+00 </wgt>
<wgt id='1229'> +1.3393571e+00 </wgt>
<wgt id='1230'> +1.3251285e+00 </wgt>
<wgt id='1231'> +1.3097673e+00 </wgt>
<wgt id='1232'> +1.2910070e+00 </wgt>
<wgt id='1233'> +1.3084581e+00 </wgt>
<wgt id='1234'> +1.2843683e+00 </wgt>
<wgt id='1235'> +1.3526835e+00 </wgt>
<wgt id='1236'> +1.3057928e+00 </wgt>
<wgt id='1237'> +1.3088901e+00 </wgt>
<wgt id='1238'> +1.2882714e+00 </wgt>
<wgt id='1239'> +1.3599770e+00 </wgt>
<wgt id='1240'> +1.3493146e+00 </wgt>
<wgt id='1241'> +1.3198607e+00 </wgt>
<wgt id='1242'> +1.3050806e+00 </wgt>
<wgt id='1243'> +1.3319563e+00 </wgt>
<wgt id='1244'> +1.3202625e+00 </wgt>
<wgt id='1245'> +1.3316693e+00 </wgt>
<wgt id='1246'> +1.3418758e+00 </wgt>
<wgt id='1247'> +1.3366433e+00 </wgt>
<wgt id='1248'> +1.3221821e+00 </wgt>
<wgt id='1249'> +1.3194519e+00 </wgt>
<wgt id='1250'> +1.3338772e+00 </wgt>
<wgt id='1251'> +1.3188916e+00 </wgt>
<wgt id='1252'> +1.3765411e+00 </wgt>
<wgt id='1253'> +1.3597755e+00 </wgt>
<wgt id='1254'> +1.2655425e+00 </wgt>
<wgt id='1255'> +1.3546628e+00 </wgt>
<wgt id='1256'> +1.3595218e+00 </wgt>
<wgt id='1257'> +1.3518109e+00 </wgt>
<wgt id='1258'> +1.3512958e+00 </wgt>
<wgt id='1259'> +1.3563193e+00 </wgt>
<wgt id='1260'> +1.3556171e+00 </wgt>
<wgt id='1261'> +1.3532861e+00 </wgt>
<wgt id='1262'> +1.3555026e+00 </wgt>
<wgt id='1263'> +1.3540879e+00 </wgt>
<wgt id='1264'> +1.3546946e+00 </wgt>
<wgt id='1265'> +1.3545857e+00 </wgt>
<wgt id='1266'> +1.3563890e+00 </wgt>
<wgt id='1267'> +1.3528782e+00 </wgt>
<wgt id='1268'> +1.3670209e+00 </wgt>
<wgt id='1269'> +1.3422134e+00 </wgt>
<wgt id='1270'> +1.3451469e+00 </wgt>
<wgt id='1271'> +1.3642107e+00 </wgt>
<wgt id='1272'> +1.3518822e+00 </wgt>
<wgt id='1273'> +1.3567483e+00 </wgt>
<wgt id='1274'> +1.3567472e+00 </wgt>
<wgt id='1275'> +1.3523476e+00 </wgt>
<wgt id='1276'> +1.3604035e+00 </wgt>
<wgt id='1277'> +1.3487894e+00 </wgt>
<wgt id='1278'> +1.3457086e+00 </wgt>
<wgt id='1279'> +1.3616521e+00 </wgt>
<wgt id='1280'> +1.3513244e+00 </wgt>
<wgt id='1281'> +1.3635163e+00 </wgt>
<wgt id='1282'> +1.3601438e+00 </wgt>
<wgt id='1283'> +1.3475044e+00 </wgt>
<wgt id='1284'> +1.3544922e+00 </wgt>
<wgt id='1285'> +1.3538606e+00 </wgt>
<wgt id='1286'> +1.3534753e+00 </wgt>
<wgt id='1287'> +1.3546150e+00 </wgt>
<wgt id='1288'> +1.3574260e+00 </wgt>
<wgt id='1289'> +1.3532333e+00 </wgt>
<wgt id='1290'> +1.3566984e+00 </wgt>
<wgt id='1291'> +1.3539008e+00 </wgt>
<wgt id='1292'> +1.3638398e+00 </wgt>
<wgt id='1293'> +1.3433781e+00 </wgt>
<wgt id='1294'> +1.3485369e+00 </wgt>
<wgt id='1295'> +1.3537010e+00 </wgt>
<wgt id='1296'> +1.3721553e+00 </wgt>
<wgt id='1297'> +1.3758573e+00 </wgt>
<wgt id='1298'> +1.3691220e+00 </wgt>
<wgt id='1299'> +1.3710040e+00 </wgt>
<wgt id='1300'> +1.3734368e+00 </wgt>
<wgt id='1301'> +1.3692418e+00 </wgt>
<wgt id='1302'> +1.3764743e+00 </wgt>
<wgt id='1303'> +1.3690652e+00 </wgt>
<wgt id='1304'> +1.3741826e+00 </wgt>
<wgt id='1305'> +1.3726788e+00 </wgt>
<wgt id='1306'> +1.3713311e+00 </wgt>
<wgt id='1307'> +1.3751440e+00 </wgt>
<wgt id='1308'> +1.3702385e+00 </wgt>
<wgt id='1309'> +1.3725208e+00 </wgt>
<wgt id='1310'> +1.3716689e+00 </wgt>
<wgt id='1311'> +1.3827832e+00 </wgt>
<wgt id='1312'> +1.3682471e+00 </wgt>
<wgt id='1313'> +1.3635650e+00 </wgt>
<wgt id='1314'> +1.3825422e+00 </wgt>
<wgt id='1315'> +1.3741405e+00 </wgt>
<wgt id='1316'> +1.3702511e+00 </wgt>
<wgt id='1317'> +1.3768276e+00 </wgt>
<wgt id='1318'> +1.3647305e+00 </wgt>
<wgt id='1319'> +1.3685355e+00 </wgt>
<wgt id='1320'> +1.3751465e+00 </wgt>
<wgt id='1321'> +1.3634712e+00 </wgt>
<wgt id='1322'> +1.3763190e+00 </wgt>
<wgt id='1323'> +1.3687125e+00 </wgt>
<wgt id='1324'> +1.3755821e+00 </wgt>
<wgt id='1325'> +1.3717770e+00 </wgt>
<wgt id='1326'> +1.3726088e+00 </wgt>
<wgt id='1327'> +1.3729425e+00 </wgt>
<wgt id='1328'> +1.3718374e+00 </wgt>
<wgt id='1329'> +1.3739601e+00 </wgt>
<wgt id='1330'> +1.3711645e+00 </wgt>
<wgt id='1331'> +1.3694787e+00 </wgt>
<wgt id='1332'> +1.3735922e+00 </wgt>
<wgt id='1333'> +1.3828507e+00 </wgt>
<wgt id='1334'> +1.3668990e+00 </wgt>
<wgt id='1335'> +1.3749760e+00 </wgt>
<wgt id='1336'> +1.3713588e+00 </wgt>
<wgt id='1337'> +1.3721553e+00 </wgt>
<wgt id='1338'> +1.3726085e+00 </wgt>
<wgt id='1339'> +1.3723834e+00 </wgt>
<wgt id='1340'> +1.3721443e+00 </wgt>
<wgt id='1341'> +1.3716747e+00 </wgt>
<wgt id='1342'> +1.3714632e+00 </wgt>
<wgt id='1343'> +1.3712593e+00 </wgt>
<wgt id='1344'> +1.3585690e+00 </wgt>
<wgt id='1345'> +1.3638179e+00 </wgt>
<wgt id='1346'> +1.3534303e+00 </wgt>
<wgt id='1347'> +1.3620828e+00 </wgt>
<wgt id='1348'> +1.3559755e+00 </wgt>
<wgt id='1349'> +1.3546542e+00 </wgt>
<wgt id='1350'> +1.3618916e+00 </wgt>
<wgt id='1351'> +1.3585609e+00 </wgt>
<wgt id='1352'> +1.3586423e+00 </wgt>
<wgt id='1353'> +1.3616331e+00 </wgt>
<wgt id='1354'> +1.3563963e+00 </wgt>
<wgt id='1355'> +1.3577262e+00 </wgt>
<wgt id='1356'> +1.3592692e+00 </wgt>
<wgt id='1357'> +1.3587282e+00 </wgt>
<wgt id='1358'> +1.3584764e+00 </wgt>
<wgt id='1359'> +1.3540769e+00 </wgt>
<wgt id='1360'> +1.3698772e+00 </wgt>
<wgt id='1361'> +1.3474593e+00 </wgt>
<wgt id='1362'> +1.3689743e+00 </wgt>
<wgt id='1363'> +1.3558261e+00 </wgt>
<wgt id='1364'> +1.3620310e+00 </wgt>
<wgt id='1365'> +1.3576048e+00 </wgt>
<wgt id='1366'> +1.3594470e+00 </wgt>
<wgt id='1367'> +1.3485308e+00 </wgt>
<wgt id='1368'> +1.3633826e+00 </wgt>
<wgt id='1369'> +1.3633605e+00 </wgt>
<wgt id='1370'> +1.3541746e+00 </wgt>
<wgt id='1371'> +1.3591837e+00 </wgt>
<wgt id='1372'> +1.3579090e+00 </wgt>
<wgt id='1373'> +1.3666855e+00 </wgt>
<wgt id='1374'> +1.3572785e+00 </wgt>
<wgt id='1375'> +1.3622725e+00 </wgt>
<wgt id='1376'> +1.3576996e+00 </wgt>
<wgt id='1377'> +1.3585878e+00 </wgt>
<wgt id='1378'> +1.3591317e+00 </wgt>
<wgt id='1379'> +1.3618452e+00 </wgt>
<wgt id='1380'> +1.3552758e+00 </wgt>
<wgt id='1381'> +1.3500851e+00 </wgt>
<wgt id='1382'> +1.3671975e+00 </wgt>
<wgt id='1383'> +1.3573548e+00 </wgt>
<wgt id='1384'> +1.3649379e+00 </wgt>
<wgt id='1385'> +1.3585690e+00 </wgt>
<wgt id='1386'> +1.3591372e+00 </wgt>
<wgt id='1387'> +1.3589869e+00 </wgt>
<wgt id='1388'> +1.3586475e+00 </wgt>
<wgt id='1389'> +1.3580616e+00 </wgt>
<wgt id='1390'> +1.3577126e+00 </wgt>
<wgt id='1391'> +1.3572681e+00 </wgt>
<wgt id='1392'> +1.4123373e+00 </wgt>
<wgt id='1393'> +1.4122344e+00 </wgt>
<wgt id='1394'> +1.4124190e+00 </wgt>
<wgt id='1395'> +1.4137964e+00 </wgt>
<wgt id='1396'> +1.4112522e+00 </wgt>
<wgt id='1397'> +1.4172766e+00 </wgt>
<wgt id='1398'> +1.4076022e+00 </wgt>
<wgt id='1399'> +1.4124124e+00 </wgt>
<wgt id='1400'> +1.4122364e+00 </wgt>
<wgt id='1401'> +1.4084401e+00 </wgt>
<wgt id='1402'> +1.4170828e+00 </wgt>
<wgt id='1403'> +1.4120527e+00 </wgt>
<wgt id='1404'> +1.4128741e+00 </wgt>
<wgt id='1405'> +1.4097807e+00 </wgt>
<wgt id='1406'> +1.4158731e+00 </wgt>
<wgt id='1407'> +1.4127382e+00 </wgt>
<wgt id='1408'> +1.4121004e+00 </wgt>
<wgt id='1409'> +1.4177434e+00 </wgt>
<wgt id='1410'> +1.4060172e+00 </wgt>
<wgt id='1411'> +1.4081272e+00 </wgt>
<wgt id='1412'> +1.4155108e+00 </wgt>
<wgt id='1413'> +1.4113624e+00 </wgt>
<wgt id='1414'> +1.4134094e+00 </wgt>
<wgt id='1415'> +1.4206854e+00 </wgt>
<wgt id='1416'> +1.4037753e+00 </wgt>
<wgt id='1417'> +1.4017938e+00 </wgt>
<wgt id='1418'> +1.4251931e+00 </wgt>
<wgt id='1419'> +1.4138794e+00 </wgt>
<wgt id='1420'> +1.4102939e+00 </wgt>
<wgt id='1421'> +1.4092490e+00 </wgt>
<wgt id='1422'> +1.4161510e+00 </wgt>
<wgt id='1423'> +1.4000676e+00 </wgt>
<wgt id='1424'> +1.4213584e+00 </wgt>
<wgt id='1425'> +1.4141084e+00 </wgt>
<wgt id='1426'> +1.4105709e+00 </wgt>
<wgt id='1427'> +1.4121836e+00 </wgt>
<wgt id='1428'> +1.4067306e+00 </wgt>
<wgt id='1429'> +1.4095902e+00 </wgt>
<wgt id='1430'> +1.4146437e+00 </wgt>
<wgt id='1431'> +1.4090015e+00 </wgt>
<wgt id='1432'> +1.4152193e+00 </wgt>
<wgt id='1433'> +1.4038851e+00 </wgt>
<wgt id='1434'> +1.4234391e+00 </wgt>
<wgt id='1435'> +1.4126787e+00 </wgt>
<wgt id='1436'> +1.4125613e+00 </wgt>
<wgt id='1437'> +1.4094007e+00 </wgt>
<wgt id='1438'> +1.4198779e+00 </wgt>
<wgt id='1439'> +1.4231569e+00 </wgt>
<wgt id='1440'> +1.4009568e+00 </wgt>
<wgt id='1441'> +1.4155441e+00 </wgt>
<wgt id='1442'> +1.4122757e+00 </wgt>
<wgt id='1443'> +1.3922006e+00 </wgt>
<wgt id='1444'> +1.3921064e+00 </wgt>
<wgt id='1445'> +1.3923067e+00 </wgt>
<wgt id='1446'> +1.3937330e+00 </wgt>
<wgt id='1447'> +1.3911062e+00 </wgt>
<wgt id='1448'> +1.3973158e+00 </wgt>
<wgt id='1449'> +1.3874803e+00 </wgt>
<wgt id='1450'> +1.3920850e+00 </wgt>
<wgt id='1451'> +1.3923062e+00 </wgt>
<wgt id='1452'> +1.3882168e+00 </wgt>
<wgt id='1453'> +1.3960273e+00 </wgt>
<wgt id='1454'> +1.3916011e+00 </wgt>
<wgt id='1455'> +1.3934546e+00 </wgt>
<wgt id='1456'> +1.3891941e+00 </wgt>
<wgt id='1457'> +1.3975390e+00 </wgt>
<wgt id='1458'> +1.3930347e+00 </wgt>
<wgt id='1459'> +1.3917075e+00 </wgt>
<wgt id='1460'> +1.3968914e+00 </wgt>
<wgt id='1461'> +1.3864617e+00 </wgt>
<wgt id='1462'> +1.3870076e+00 </wgt>
<wgt id='1463'> +1.3966664e+00 </wgt>
<wgt id='1464'> +1.3918271e+00 </wgt>
<wgt id='1465'> +1.3927038e+00 </wgt>
<wgt id='1466'> +1.4046751e+00 </wgt>
<wgt id='1467'> +1.3836607e+00 </wgt>
<wgt id='1468'> +1.4043810e+00 </wgt>
<wgt id='1469'> +1.3802692e+00 </wgt>
<wgt id='1470'> +1.3941142e+00 </wgt>
<wgt id='1471'> +1.3904091e+00 </wgt>
<wgt id='1472'> +1.3899222e+00 </wgt>
<wgt id='1473'> +1.3950013e+00 </wgt>
<wgt id='1474'> +1.3838761e+00 </wgt>
<wgt id='1475'> +1.4013323e+00 </wgt>
<wgt id='1476'> +1.3963198e+00 </wgt>
<wgt id='1477'> +1.3888065e+00 </wgt>
<wgt id='1478'> +1.3923004e+00 </wgt>
<wgt id='1479'> +1.3860550e+00 </wgt>
<wgt id='1480'> +1.3899198e+00 </wgt>
<wgt id='1481'> +1.3939938e+00 </wgt>
<wgt id='1482'> +1.3889631e+00 </wgt>
<wgt id='1483'> +1.3953907e+00 </wgt>
<wgt id='1484'> +1.3837087e+00 </wgt>
<wgt id='1485'> +1.4030755e+00 </wgt>
<wgt id='1486'> +1.3938826e+00 </wgt>
<wgt id='1487'> +1.3915956e+00 </wgt>
<wgt id='1488'> +1.3888019e+00 </wgt>
<wgt id='1489'> +1.4004703e+00 </wgt>
<wgt id='1490'> +1.4047819e+00 </wgt>
<wgt id='1491'> +1.3816246e+00 </wgt>
<wgt id='1492'> +1.3974189e+00 </wgt>
<wgt id='1493'> +1.3917807e+00 </wgt>
<wgt id='1494'> +1.3490017e+00 </wgt>
<wgt id='1495'> +1.3213872e+00 </wgt>
<wgt id='1496'> +1.3309503e+00 </wgt>
<wgt id='1497'> +1.3396795e+00 </wgt>
<wgt id='1498'> +1.3582847e+00 </wgt>
<wgt id='1499'> +1.3487784e+00 </wgt>
<wgt id='1500'> +1.3605716e+00 </wgt>
<wgt id='1501'> +1.3587221e+00 </wgt>
<wgt id='1502'> +1.3565791e+00 </wgt>
<wgt id='1503'> +1.3542679e+00 </wgt>
<wgt id='1504'> +1.3517134e+00 </wgt>
<wgt id='1505'> +1.3458880e+00 </wgt>
<wgt id='1506'> +1.3428649e+00 </wgt>
<wgt id='1507'> +1.3397022e+00 </wgt>
<wgt id='1508'> +1.3487784e+00 </wgt>
<wgt id='1509'> +1.3497547e+00 </wgt>
<wgt id='1510'> +1.3492159e+00 </wgt>
<wgt id='1511'> +1.3485155e+00 </wgt>
<wgt id='1512'> +1.3481905e+00 </wgt>
<wgt id='1513'> +1.3507513e+00 </wgt>
<wgt id='1514'> +1.3499752e+00 </wgt>
<wgt id='1515'> +1.3517198e+00 </wgt>
<wgt id='1516'> +1.3525947e+00 </wgt>
<wgt id='1517'> +1.3488815e+00 </wgt>
<wgt id='1518'> +1.3540931e+00 </wgt>
<wgt id='1519'> +1.3493750e+00 </wgt>
<wgt id='1520'> +1.3533283e+00 </wgt>
<wgt id='1521'> +1.3481100e+00 </wgt>
<wgt id='1522'> +1.3487091e+00 </wgt>
<wgt id='1523'> +1.3526714e+00 </wgt>
<wgt id='1524'> +1.3561827e+00 </wgt>
<wgt id='1525'> +1.3483564e+00 </wgt>
<wgt id='1526'> +1.3493723e+00 </wgt>
<wgt id='1527'> +1.3523871e+00 </wgt>
<wgt id='1528'> +1.3491414e+00 </wgt>
<wgt id='1529'> +1.3524721e+00 </wgt>
<wgt id='1530'> +1.3560794e+00 </wgt>
<wgt id='1531'> +1.3476928e+00 </wgt>
<wgt id='1532'> +1.3572594e+00 </wgt>
<wgt id='1533'> +1.3417474e+00 </wgt>
<wgt id='1534'> +1.3474326e+00 </wgt>
<wgt id='1535'> +1.3530249e+00 </wgt>
<wgt id='1536'> +1.3492213e+00 </wgt>
<wgt id='1537'> +1.3523461e+00 </wgt>
<wgt id='1538'> +1.3451370e+00 </wgt>
<wgt id='1539'> +1.3641095e+00 </wgt>
<wgt id='1540'> +1.3499819e+00 </wgt>
<wgt id='1541'> +1.3501277e+00 </wgt>
<wgt id='1542'> +1.3534798e+00 </wgt>
<wgt id='1543'> +1.3444924e+00 </wgt>
<wgt id='1544'> +1.3460200e+00 </wgt>
<wgt id='1545'> +1.3588944e+00 </wgt>
<wgt id='1546'> +1.3504064e+00 </wgt>
<wgt id='1547'> +1.3499323e+00 </wgt>
<wgt id='1548'> +1.3457358e+00 </wgt>
<wgt id='1549'> +1.3511190e+00 </wgt>
<wgt id='1550'> +1.3505788e+00 </wgt>
<wgt id='1551'> +1.3502769e+00 </wgt>
<wgt id='1552'> +1.3463879e+00 </wgt>
<wgt id='1553'> +1.3536135e+00 </wgt>
<wgt id='1554'> +1.3555975e+00 </wgt>
<wgt id='1555'> +1.3422419e+00 </wgt>
<wgt id='1556'> +1.3519398e+00 </wgt>
<wgt id='1557'> +1.3463097e+00 </wgt>
<wgt id='1558'> +1.3409423e+00 </wgt>
<wgt id='1559'> +1.3594940e+00 </wgt>
<wgt id='1560'> +1.3610428e+00 </wgt>
<wgt id='1561'> +1.3462097e+00 </wgt>
<wgt id='1562'> +1.3442482e+00 </wgt>
<wgt id='1563'> +1.3559329e+00 </wgt>
<wgt id='1564'> +1.3507513e+00 </wgt>
<wgt id='1565'> +1.3380573e+00 </wgt>
<wgt id='1566'> +1.3593619e+00 </wgt>
<wgt id='1567'> +1.3481843e+00 </wgt>
<wgt id='1568'> +1.3612415e+00 </wgt>
<wgt id='1569'> +1.3591022e+00 </wgt>
<wgt id='1570'> +1.3564403e+00 </wgt>
<wgt id='1571'> +1.3535812e+00 </wgt>
<wgt id='1572'> +1.3511225e+00 </wgt>
<wgt id='1573'> +1.3444825e+00 </wgt>
<wgt id='1574'> +1.3404661e+00 </wgt>
<wgt id='1575'> +1.3371344e+00 </wgt>
<wgt id='1576'> +1.3481843e+00 </wgt>
<wgt id='1577'> +1.3484609e+00 </wgt>
<wgt id='1578'> +1.3481971e+00 </wgt>
<wgt id='1579'> +1.3481323e+00 </wgt>
<wgt id='1580'> +1.3481716e+00 </wgt>
<wgt id='1581'> +1.3522592e+00 </wgt>
<wgt id='1582'> +1.3538877e+00 </wgt>
<wgt id='1583'> +1.3556080e+00 </wgt>
<wgt id='1584'> +1.3480630e+00 </wgt>
<wgt id='1585'> +1.3555037e+00 </wgt>
<wgt id='1586'> +1.3350590e+00 </wgt>
<wgt id='1587'> +1.3471162e+00 </wgt>
<wgt id='1588'> +1.3601975e+00 </wgt>
<wgt id='1589'> +1.3516843e+00 </wgt>
<wgt id='1590'> +1.3616933e+00 </wgt>
<wgt id='1591'> +1.3494015e+00 </wgt>
<wgt id='1592'> +1.3337071e+00 </wgt>
<wgt id='1593'> +1.3550997e+00 </wgt>
<wgt id='1594'> +1.3436215e+00 </wgt>
<wgt id='1595'> +1.3512333e+00 </wgt>
<wgt id='1596'> +1.3611958e+00 </wgt>
<wgt id='1597'> +1.3575909e+00 </wgt>
<wgt id='1598'> +1.3515424e+00 </wgt>
<wgt id='1599'> +1.3516005e+00 </wgt>
<wgt id='1600'> +1.3571908e+00 </wgt>
<wgt id='1601'> +1.3477772e+00 </wgt>
<wgt id='1602'> +1.3555878e+00 </wgt>
<wgt id='1603'> +1.3535187e+00 </wgt>
<wgt id='1604'> +1.3506746e+00 </wgt>
<wgt id='1605'> +1.3512929e+00 </wgt>
<wgt id='1606'> +1.3538297e+00 </wgt>
<wgt id='1607'> +1.3537098e+00 </wgt>
<wgt id='1608'> +1.3499734e+00 </wgt>
<wgt id='1609'> +1.3539143e+00 </wgt>
<wgt id='1610'> +1.3517651e+00 </wgt>
<wgt id='1611'> +1.3627505e+00 </wgt>
<wgt id='1612'> +1.3549412e+00 </wgt>
<wgt id='1613'> +1.3552494e+00 </wgt>
<wgt id='1614'> +1.3550968e+00 </wgt>
<wgt id='1615'> +1.3543768e+00 </wgt>
<wgt id='1616'> +1.3564354e+00 </wgt>
<wgt id='1617'> +1.3561331e+00 </wgt>
<wgt id='1618'> +1.3561645e+00 </wgt>
<wgt id='1619'> +1.3559418e+00 </wgt>
<wgt id='1620'> +1.3554207e+00 </wgt>
<wgt id='1621'> +1.3556403e+00 </wgt>
<wgt id='1622'> +1.3555239e+00 </wgt>
<wgt id='1623'> +1.3508672e+00 </wgt>
<wgt id='1624'> +1.3505311e+00 </wgt>
<wgt id='1625'> +1.3491587e+00 </wgt>
<wgt id='1626'> +1.3539619e+00 </wgt>
<wgt id='1627'> +1.3510522e+00 </wgt>
<wgt id='1628'> +1.3568323e+00 </wgt>
<wgt id='1629'> +1.3548854e+00 </wgt>
<wgt id='1630'> +1.3500889e+00 </wgt>
<wgt id='1631'> +1.3563928e+00 </wgt>
<wgt id='1632'> +1.3504379e+00 </wgt>
<wgt id='1633'> +1.3585704e+00 </wgt>
<wgt id='1634'> +1.3517410e+00 </wgt>
<wgt id='1635'> +1.3506478e+00 </wgt>
<wgt id='1636'> +1.3518997e+00 </wgt>
<wgt id='1637'> +1.3512412e+00 </wgt>
<wgt id='1638'> +1.3513340e+00 </wgt>
<wgt id='1639'> +1.3564344e+00 </wgt>
<wgt id='1640'> +1.3564098e+00 </wgt>
<wgt id='1641'> +1.3519803e+00 </wgt>
<wgt id='1642'> +1.3543768e+00 </wgt>
<wgt id='1643'> +1.3547291e+00 </wgt>
<wgt id='1644'> +1.3533991e+00 </wgt>
<wgt id='1645'> +1.3540132e+00 </wgt>
<wgt id='1646'> +1.3590476e+00 </wgt>
<wgt id='1647'> +1.3522245e+00 </wgt>
<wgt id='1648'> +1.3518188e+00 </wgt>
<wgt id='1649'> +1.3584359e+00 </wgt>
<wgt id='1650'> +1.3527183e+00 </wgt>
<wgt id='1651'> +1.3529788e+00 </wgt>
<wgt id='1652'> +1.3518371e+00 </wgt>
<wgt id='1653'> +1.3526102e+00 </wgt>
<wgt id='1654'> +1.3534465e+00 </wgt>
<wgt id='1655'> +1.3568893e+00 </wgt>
<wgt id='1656'> +1.3569557e+00 </wgt>
<wgt id='1657'> +1.3526637e+00 </wgt>
<wgt id='1658'> +1.3598880e+00 </wgt>
<wgt id='1659'> +1.3606852e+00 </wgt>
<wgt id='1660'> +1.3536302e+00 </wgt>
<wgt id='1661'> +1.3543451e+00 </wgt>
<wgt id='1662'> +1.3548009e+00 </wgt>
<wgt id='1663'> +1.3560823e+00 </wgt>
<wgt id='1664'> +1.3540472e+00 </wgt>
<wgt id='1665'> +1.3548534e+00 </wgt>
<wgt id='1666'> +1.3558838e+00 </wgt>
<wgt id='1667'> +1.3542504e+00 </wgt>
<wgt id='1668'> +1.3550512e+00 </wgt>
<wgt id='1669'> +1.3547409e+00 </wgt>
<wgt id='1670'> +1.3547429e+00 </wgt>
<wgt id='1671'> +1.3541240e+00 </wgt>
<wgt id='1672'> +1.3581154e+00 </wgt>
<wgt id='1673'> +1.3556620e+00 </wgt>
<wgt id='1674'> +1.3565605e+00 </wgt>
<wgt id='1675'> +1.3548274e+00 </wgt>
<wgt id='1676'> +1.3544589e+00 </wgt>
<wgt id='1677'> +1.3560991e+00 </wgt>
<wgt id='1678'> +1.3539780e+00 </wgt>
<wgt id='1679'> +1.3556542e+00 </wgt>
<wgt id='1680'> +1.3566333e+00 </wgt>
<wgt id='1681'> +1.3560260e+00 </wgt>
<wgt id='1682'> +1.3537289e+00 </wgt>
<wgt id='1683'> +1.3533720e+00 </wgt>
<wgt id='1684'> +1.3553593e+00 </wgt>
<wgt id='1685'> +1.3559127e+00 </wgt>
<wgt id='1686'> +1.3532594e+00 </wgt>
<wgt id='1687'> +1.3549850e+00 </wgt>
<wgt id='1688'> +1.3550547e+00 </wgt>
<wgt id='1689'> +1.3546357e+00 </wgt>
<wgt id='1690'> +1.3552745e+00 </wgt>
<wgt id='1691'> +1.3540695e+00 </wgt>
<wgt id='1692'> +1.3560042e+00 </wgt>
<wgt id='1693'> +1.3550664e+00 </wgt>
<wgt id='1694'> +1.3552554e+00 </wgt>
<wgt id='1695'> +1.3545420e+00 </wgt>
<wgt id='1696'> +1.3558435e+00 </wgt>
<wgt id='1697'> +1.3541398e+00 </wgt>
<wgt id='1698'> +1.3548005e+00 </wgt>
<wgt id='1699'> +1.3539761e+00 </wgt>
<wgt id='1700'> +1.3550731e+00 </wgt>
<wgt id='1701'> +1.3553743e+00 </wgt>
<wgt id='1702'> +1.3558067e+00 </wgt>
<wgt id='1703'> +1.3535843e+00 </wgt>
<wgt id='1704'> +1.3553792e+00 </wgt>
<wgt id='1705'> +1.3547949e+00 </wgt>
<wgt id='1706'> +1.3557961e+00 </wgt>
<wgt id='1707'> +1.3551868e+00 </wgt>
<wgt id='1708'> +1.3554254e+00 </wgt>
<wgt id='1709'> +1.3552535e+00 </wgt>
<wgt id='1710'> +1.3547550e+00 </wgt>
<wgt id='1711'> +1.3559038e+00 </wgt>
<wgt id='1712'> +1.3551370e+00 </wgt>
<wgt id='1713'> +1.3301339e+00 </wgt>
<wgt id='1714'> +1.3805493e+00 </wgt>
<wgt id='1715'> +1.3436187e+00 </wgt>
<wgt id='1716'> +1.3344342e+00 </wgt>
<wgt id='1717'> +1.3834320e+00 </wgt>
<wgt id='1718'> +1.3464448e+00 </wgt>
<wgt id='1719'> +1.3214005e+00 </wgt>
<wgt id='1720'> +1.3803319e+00 </wgt>
<wgt id='1721'> +1.3591064e+00 </wgt>
<wgt id='1722'> +1.3478371e+00 </wgt>
<wgt id='1723'> +1.3596773e+00 </wgt>
<wgt id='1724'> +1.3229378e+00 </wgt>
<wgt id='1725'> +1.3409359e+00 </wgt>
<wgt id='1726'> +1.3193614e+00 </wgt>
<wgt id='1727'> +1.3530759e+00 </wgt>
<wgt id='1728'> +1.3454014e+00 </wgt>
<wgt id='1729'> +1.3471847e+00 </wgt>
<wgt id='1730'> +1.3220124e+00 </wgt>
<wgt id='1731'> +1.2859373e+00 </wgt>
<wgt id='1732'> +1.3127613e+00 </wgt>
<wgt id='1733'> +1.3392022e+00 </wgt>
<wgt id='1734'> +1.3794626e+00 </wgt>
<wgt id='1735'> +1.2962725e+00 </wgt>
<wgt id='1736'> +1.3665586e+00 </wgt>
<wgt id='1737'> +1.3388093e+00 </wgt>
<wgt id='1738'> +1.3725389e+00 </wgt>
<wgt id='1739'> +1.3698362e+00 </wgt>
<wgt id='1740'> +1.3713958e+00 </wgt>
<wgt id='1741'> +1.3223036e+00 </wgt>
<wgt id='1742'> +1.3369105e+00 </wgt>
<wgt id='1743'> +1.3248925e+00 </wgt>
<wgt id='1744'> +1.3565350e+00 </wgt>
<wgt id='1745'> +1.3323939e+00 </wgt>
<wgt id='1746'> +1.3454564e+00 </wgt>
<wgt id='1747'> +1.3636282e+00 </wgt>
<wgt id='1748'> +1.3139249e+00 </wgt>
<wgt id='1749'> +1.3496543e+00 </wgt>
<wgt id='1750'> +1.3215678e+00 </wgt>
<wgt id='1751'> +1.3368901e+00 </wgt>
<wgt id='1752'> +1.3491192e+00 </wgt>
<wgt id='1753'> +1.3419660e+00 </wgt>
<wgt id='1754'> +1.3243018e+00 </wgt>
<wgt id='1755'> +1.3426829e+00 </wgt>
<wgt id='1756'> +1.3854138e+00 </wgt>
<wgt id='1757'> +1.3204986e+00 </wgt>
<wgt id='1758'> +1.3604948e+00 </wgt>
<wgt id='1759'> +1.3591911e+00 </wgt>
<wgt id='1760'> +1.3255300e+00 </wgt>
<wgt id='1761'> +1.3245196e+00 </wgt>
<wgt id='1762'> +1.3530759e+00 </wgt>
<wgt id='1763'> +1.3615560e+00 </wgt>
<wgt id='1764'> +1.3714426e+00 </wgt>
<wgt id='1765'> +1.3760875e+00 </wgt>
<wgt id='1766'> +1.3435610e+00 </wgt>
<wgt id='1767'> +1.3110471e+00 </wgt>
<wgt id='1768'> +1.2988243e+00 </wgt>
<wgt id='1769'> +1.3750247e+00 </wgt>
<wgt id='1770'> +1.2976199e+00 </wgt>
<wgt id='1771'> +1.3301665e+00 </wgt>
<wgt id='1772'> +1.3241461e+00 </wgt>
<wgt id='1773'> +1.3518080e+00 </wgt>
<wgt id='1774'> +1.3277932e+00 </wgt>
<wgt id='1775'> +1.3514406e+00 </wgt>
<wgt id='1776'> +1.3615365e+00 </wgt>
<wgt id='1777'> +1.3330040e+00 </wgt>
<wgt id='1778'> +1.3395097e+00 </wgt>
<wgt id='1779'> +1.3386524e+00 </wgt>
<wgt id='1780'> +1.3909199e+00 </wgt>
<wgt id='1781'> +1.3568366e+00 </wgt>
<wgt id='1782'> +1.2960488e+00 </wgt>
<wgt id='1783'> +1.3485938e+00 </wgt>
<wgt id='1784'> +1.3256479e+00 </wgt>
<wgt id='1785'> +1.3468871e+00 </wgt>
<wgt id='1786'> +1.3292652e+00 </wgt>
<wgt id='1787'> +1.3619259e+00 </wgt>
<wgt id='1788'> +1.3465280e+00 </wgt>
<wgt id='1789'> +1.3473225e+00 </wgt>
<wgt id='1790'> +1.3527790e+00 </wgt>
<wgt id='1791'> +1.3497541e+00 </wgt>
<wgt id='1792'> +1.3631523e+00 </wgt>
<wgt id='1793'> +1.3374326e+00 </wgt>
<wgt id='1794'> +1.3082667e+00 </wgt>
<wgt id='1795'> +1.3539306e+00 </wgt>
<wgt id='1796'> +1.3509461e+00 </wgt>
<wgt id='1797'> +1.3795624e+00 </wgt>
<wgt id='1798'> +1.3298909e+00 </wgt>
<wgt id='1799'> +1.3348157e+00 </wgt>
<wgt id='1800'> +1.3473977e+00 </wgt>
<wgt id='1801'> +1.3422522e+00 </wgt>
<wgt id='1802'> +1.3473239e+00 </wgt>
<wgt id='1803'> +1.3481599e+00 </wgt>
<wgt id='1804'> +1.3704310e+00 </wgt>
<wgt id='1805'> +1.3455194e+00 </wgt>
<wgt id='1806'> +1.3549220e+00 </wgt>
<wgt id='1807'> +1.3517046e+00 </wgt>
<wgt id='1808'> +1.3016567e+00 </wgt>
<wgt id='1809'> +1.3603009e+00 </wgt>
<wgt id='1810'> +1.3362322e+00 </wgt>
<wgt id='1811'> +1.3506384e+00 </wgt>
<wgt id='1812'> +1.3298826e+00 </wgt>
<wgt id='1813'> +1.3582245e+00 </wgt>
<wgt id='1814'> +1.3268406e+00 </wgt>
<wgt id='1815'> +1.3653236e+00 </wgt>
<wgt id='1816'> +1.3773082e+00 </wgt>
<wgt id='1817'> +1.4158617e+00 </wgt>
<wgt id='1818'> +1.3927527e+00 </wgt>
<wgt id='1819'> +1.4213591e+00 </wgt>
<wgt id='1820'> +1.3618715e+00 </wgt>
<wgt id='1821'> +1.4403920e+00 </wgt>
<wgt id='1822'> +1.3858568e+00 </wgt>
<wgt id='1823'> +1.3660775e+00 </wgt>
<wgt id='1824'> +1.3575935e+00 </wgt>
<wgt id='1825'> +1.3799902e+00 </wgt>
<wgt id='1826'> +1.4024652e+00 </wgt>
<wgt id='1827'> +1.3501344e+00 </wgt>
<wgt id='1828'> +1.3878508e+00 </wgt>
<wgt id='1829'> +1.3590629e+00 </wgt>
<wgt id='1830'> +1.3866746e+00 </wgt>
<wgt id='1831'> +1.3938620e+00 </wgt>
<wgt id='1832'> +1.3792241e+00 </wgt>
<wgt id='1833'> +1.3865762e+00 </wgt>
<wgt id='1834'> +1.3746442e+00 </wgt>
<wgt id='1835'> +1.3656065e+00 </wgt>
<wgt id='1836'> +1.3900327e+00 </wgt>
<wgt id='1837'> +1.3853728e+00 </wgt>
<wgt id='1838'> +1.3664836e+00 </wgt>
<wgt id='1839'> +1.3969992e+00 </wgt>
<wgt id='1840'> +1.3755775e+00 </wgt>
<wgt id='1841'> +1.3652369e+00 </wgt>
<wgt id='1842'> +1.3771062e+00 </wgt>
<wgt id='1843'> +1.3673620e+00 </wgt>
<wgt id='1844'> +1.3757348e+00 </wgt>
<wgt id='1845'> +1.3997159e+00 </wgt>
<wgt id='1846'> +1.3946079e+00 </wgt>
<wgt id='1847'> +1.3593996e+00 </wgt>
<wgt id='1848'> +1.3644748e+00 </wgt>
<wgt id='1849'> +1.3460963e+00 </wgt>
<wgt id='1850'> +1.3867695e+00 </wgt>
<wgt id='1851'> +1.3729828e+00 </wgt>
<wgt id='1852'> +1.3646757e+00 </wgt>
<wgt id='1853'> +1.3633409e+00 </wgt>
<wgt id='1854'> +1.3734515e+00 </wgt>
<wgt id='1855'> +1.3826397e+00 </wgt>
<wgt id='1856'> +1.3535077e+00 </wgt>
<wgt id='1857'> +1.3922822e+00 </wgt>
<wgt id='1858'> +1.3827454e+00 </wgt>
<wgt id='1859'> +1.3628041e+00 </wgt>
<wgt id='1860'> +1.3889448e+00 </wgt>
<wgt id='1861'> +1.3871905e+00 </wgt>
<wgt id='1862'> +1.3981373e+00 </wgt>
<wgt id='1863'> +1.3728585e+00 </wgt>
<wgt id='1864'> +1.3811942e+00 </wgt>
<wgt id='1865'> +1.3802655e+00 </wgt>
<wgt id='1866'> +1.3771768e+00 </wgt>
<wgt id='1867'> +1.3785457e+00 </wgt>
<wgt id='1868'> +1.3882643e+00 </wgt>
<wgt id='1869'> +1.4057379e+00 </wgt>
<wgt id='1870'> +1.3514308e+00 </wgt>
<wgt id='1871'> +1.3660119e+00 </wgt>
<wgt id='1872'> +1.3920060e+00 </wgt>
<wgt id='1873'> +1.3700136e+00 </wgt>
<wgt id='1874'> +1.3835577e+00 </wgt>
<wgt id='1875'> +1.3938742e+00 </wgt>
<wgt id='1876'> +1.3781598e+00 </wgt>
<wgt id='1877'> +1.3724709e+00 </wgt>
<wgt id='1878'> +1.3986560e+00 </wgt>
<wgt id='1879'> +1.3639962e+00 </wgt>
<wgt id='1880'> +1.3524090e+00 </wgt>
<wgt id='1881'> +1.3394229e+00 </wgt>
<wgt id='1882'> +1.3597302e+00 </wgt>
<wgt id='1883'> +1.4153331e+00 </wgt>
<wgt id='1884'> +1.3709014e+00 </wgt>
<wgt id='1885'> +1.3519174e+00 </wgt>
<wgt id='1886'> +1.3350930e+00 </wgt>
<wgt id='1887'> +1.3739301e+00 </wgt>
<wgt id='1888'> +1.3899613e+00 </wgt>
<wgt id='1889'> +1.4005199e+00 </wgt>
<wgt id='1890'> +1.4118586e+00 </wgt>
<wgt id='1891'> +1.3831002e+00 </wgt>
<wgt id='1892'> +1.3857257e+00 </wgt>
<wgt id='1893'> +1.3549945e+00 </wgt>
<wgt id='1894'> +1.3703972e+00 </wgt>
<wgt id='1895'> +1.3780742e+00 </wgt>
<wgt id='1896'> +1.3525403e+00 </wgt>
<wgt id='1897'> +1.3743077e+00 </wgt>
<wgt id='1898'> +1.3752110e+00 </wgt>
<wgt id='1899'> +1.3798708e+00 </wgt>
<wgt id='1900'> +1.3752749e+00 </wgt>
<wgt id='1901'> +1.3855892e+00 </wgt>
<wgt id='1902'> +1.3594793e+00 </wgt>
<wgt id='1903'> +1.3967214e+00 </wgt>
<wgt id='1904'> +1.3906617e+00 </wgt>
<wgt id='1905'> +1.3753232e+00 </wgt>
<wgt id='1906'> +1.3597992e+00 </wgt>
<wgt id='1907'> +1.3640012e+00 </wgt>
<wgt id='1908'> +1.3527228e+00 </wgt>
<wgt id='1909'> +1.3778064e+00 </wgt>
<wgt id='1910'> +1.4035566e+00 </wgt>
<wgt id='1911'> +1.3633010e+00 </wgt>
<wgt id='1912'> +1.3577628e+00 </wgt>
<wgt id='1913'> +1.3697977e+00 </wgt>
<wgt id='1914'> +1.3684236e+00 </wgt>
<wgt id='1915'> +1.3713810e+00 </wgt>
<wgt id='1916'> +1.3570740e+00 </wgt>
<wgt id='1917'> +1.3431877e+00 </wgt>
<wgt id='1918'> +1.3651466e+00 </wgt>
<wgt id='1919'> +1.3773082e+00 </wgt>
<wgt id='1920'> +1.4158617e+00 </wgt>
<wgt id='1921'> +1.3927527e+00 </wgt>
<wgt id='1922'> +1.4213591e+00 </wgt>
<wgt id='1923'> +1.3618715e+00 </wgt>
<wgt id='1924'> +1.4403920e+00 </wgt>
<wgt id='1925'> +1.3858568e+00 </wgt>
<wgt id='1926'> +1.3660775e+00 </wgt>
<wgt id='1927'> +1.3575935e+00 </wgt>
<wgt id='1928'> +1.3799902e+00 </wgt>
<wgt id='1929'> +1.4024652e+00 </wgt>
<wgt id='1930'> +1.3501344e+00 </wgt>
<wgt id='1931'> +1.3878508e+00 </wgt>
<wgt id='1932'> +1.3590629e+00 </wgt>
<wgt id='1933'> +1.3866746e+00 </wgt>
<wgt id='1934'> +1.3938620e+00 </wgt>
<wgt id='1935'> +1.3792241e+00 </wgt>
<wgt id='1936'> +1.3865762e+00 </wgt>
<wgt id='1937'> +1.3746442e+00 </wgt>
<wgt id='1938'> +1.3656065e+00 </wgt>
<wgt id='1939'> +1.3900327e+00 </wgt>
<wgt id='1940'> +1.3853728e+00 </wgt>
<wgt id='1941'> +1.3664836e+00 </wgt>
<wgt id='1942'> +1.3969992e+00 </wgt>
<wgt id='1943'> +1.3755775e+00 </wgt>
<wgt id='1944'> +1.3652369e+00 </wgt>
<wgt id='1945'> +1.3771062e+00 </wgt>
<wgt id='1946'> +1.3673620e+00 </wgt>
<wgt id='1947'> +1.3757348e+00 </wgt>
<wgt id='1948'> +1.3997159e+00 </wgt>
<wgt id='1949'> +1.3946079e+00 </wgt>
<wgt id='1950'> +1.3593996e+00 </wgt>
<wgt id='1951'> +1.3644748e+00 </wgt>
<wgt id='1952'> +1.3460963e+00 </wgt>
<wgt id='1953'> +1.3867695e+00 </wgt>
<wgt id='1954'> +1.3729828e+00 </wgt>
<wgt id='1955'> +1.3646757e+00 </wgt>
<wgt id='1956'> +1.3633409e+00 </wgt>
<wgt id='1957'> +1.3734515e+00 </wgt>
<wgt id='1958'> +1.3826397e+00 </wgt>
<wgt id='1959'> +1.3535077e+00 </wgt>
<wgt id='1960'> +1.3922822e+00 </wgt>
<wgt id='1961'> +1.3827454e+00 </wgt>
<wgt id='1962'> +1.3628041e+00 </wgt>
<wgt id='1963'> +1.3889448e+00 </wgt>
<wgt id='1964'> +1.3871905e+00 </wgt>
<wgt id='1965'> +1.3981373e+00 </wgt>
<wgt id='1966'> +1.3728585e+00 </wgt>
<wgt id='1967'> +1.3811942e+00 </wgt>
<wgt id='1968'> +1.3802655e+00 </wgt>
<wgt id='1969'> +1.3771768e+00 </wgt>
<wgt id='1970'> +1.3785457e+00 </wgt>
<wgt id='1971'> +1.3882643e+00 </wgt>
<wgt id='1972'> +1.4057379e+00 </wgt>
<wgt id='1973'> +1.3514308e+00 </wgt>
<wgt id='1974'> +1.3660119e+00 </wgt>
<wgt id='1975'> +1.3920060e+00 </wgt>
<wgt id='1976'> +1.3700136e+00 </wgt>
<wgt id='1977'> +1.3835577e+00 </wgt>
<wgt id='1978'> +1.3938742e+00 </wgt>
<wgt id='1979'> +1.3781598e+00 </wgt>
<wgt id='1980'> +1.3724709e+00 </wgt>
<wgt id='1981'> +1.3986560e+00 </wgt>
<wgt id='1982'> +1.3639962e+00 </wgt>
<wgt id='1983'> +1.3524090e+00 </wgt>
<wgt id='1984'> +1.3394229e+00 </wgt>
<wgt id='1985'> +1.3597302e+00 </wgt>
<wgt id='1986'> +1.4153331e+00 </wgt>
<wgt id='1987'> +1.3709014e+00 </wgt>
<wgt id='1988'> +1.3519174e+00 </wgt>
<wgt id='1989'> +1.3350930e+00 </wgt>
<wgt id='1990'> +1.3739301e+00 </wgt>
<wgt id='1991'> +1.3899613e+00 </wgt>
<wgt id='1992'> +1.4005199e+00 </wgt>
<wgt id='1993'> +1.4118586e+00 </wgt>
<wgt id='1994'> +1.3831002e+00 </wgt>
<wgt id='1995'> +1.3857257e+00 </wgt>
<wgt id='1996'> +1.3549945e+00 </wgt>
<wgt id='1997'> +1.3703972e+00 </wgt>
<wgt id='1998'> +1.3780742e+00 </wgt>
<wgt id='1999'> +1.3525403e+00 </wgt>
<wgt id='2000'> +1.3743077e+00 </wgt>
<wgt id='2001'> +1.3752110e+00 </wgt>
<wgt id='2002'> +1.3798708e+00 </wgt>
<wgt id='2003'> +1.3752749e+00 </wgt>
<wgt id='2004'> +1.3855892e+00 </wgt>
<wgt id='2005'> +1.3594793e+00 </wgt>
<wgt id='2006'> +1.3967214e+00 </wgt>
<wgt id='2007'> +1.3906617e+00 </wgt>
<wgt id='2008'> +1.3753232e+00 </wgt>
<wgt id='2009'> +1.3597992e+00 </wgt>
<wgt id='2010'> +1.3640012e+00 </wgt>
<wgt id='2011'> +1.3527228e+00 </wgt>
<wgt id='2012'> +1.3778064e+00 </wgt>
<wgt id='2013'> +1.4035566e+00 </wgt>
<wgt id='2014'> +1.3633010e+00 </wgt>
<wgt id='2015'> +1.3577628e+00 </wgt>
<wgt id='2016'> +1.3697977e+00 </wgt>
<wgt id='2017'> +1.3684236e+00 </wgt>
<wgt id='2018'> +1.3713810e+00 </wgt>
<wgt id='2019'> +1.3570740e+00 </wgt>
<wgt id='2020'> +1.3690485e+00 </wgt>
<wgt id='2021'> +1.3831862e+00 </wgt>
<wgt id='2022'> +1.3598279e+00 </wgt>
</rwgt>
</event>
<event>
13      1 +1.3581722e+00 1.17184500e+02 7.81860800e-03 1.26748300e-01
        2 -1    0    0  501    0 +0.0000000000e+00 +0.0000000000e+00 +7.9114545360e+02 7.9114545361e+02 2.5500000000e-03 0.0000e+00 -1.0000e+00
       21 -1    0    0  502  503 +0.0000000000e+00 +0.0000000000e+00 -2.7370897977e+02 2.7370897977e+02 0.0000000000e+00 0.0000e+00 -1.0000e+00
  8000001  2    1    2  502    0 -1.5704856491e+00 +4.8544863775e+00 +2.5080943857e+02 6.5033344557e+02 6.0000181957e+02 0.0000e+00 0.0000e+00
        1  1    1    2  501    0 -4.5196641188e-01 +1.7512394546e+01 +3.3856318950e+02 3.3901610809e+02 5.0400000000e-03 0.0000e+00 -1.0000e+00
       -5  1    1    2    0  503 +2.0224520610e+00 -2.2366880924e+01 -7.1936154235e+01 7.5504879720e+01 4.6700000000e+00 0.0000e+00 1.0000e+00
        6  2    3    3  502    0 -2.3139037039e+02 +1.1030281310e+02 +2.9295501884e+01 3.0073310622e+02 1.5451200814e+02 0.0000e+00 0.0000e+00
        5  1    6    6  502    0 -1.8206700837e+02 +6.7999780723e+01 +2.7134384001e+01 1.9629174565e+02 4.6700000000e+00 0.0000e+00 -1.0000e+00
       24  2    6    6    0    0 -4.9323362018e+01 +4.2303032378e+01 +2.1611178831e+00 1.0444136056e+02 8.1737303461e+01 0.0000e+00 0.0000e+00
       12  1    8    8    0    0 +4.1572914158e+00 -6.2783689587e+00 -2.5869148727e+01 2.6942788359e+01 0.0000000000e+00 0.0000e+00 -1.0000e+00
      -11  1    8    8    0    0 -5.3480653434e+01 +4.8581401337e+01 +2.8030266610e+01 7.7498572206e+01 5.1100000000e-04 0.0000e+00 1.0000e+00
       23  2    3    3    0    0 +2.2981988474e+02 -1.0544832672e+02 +2.2151393668e+02 3.4960033935e+02 9.5997104632e+01 0.0000e+00 0.0000e+00
        4  1   11   11  504    0 +5.2489649032e+01 -1.7440489238e+01 +1.0811958072e+02 1.2145283264e+02 1.2700000000e+00 0.0000e+00 -1.0000e+00
       -4  1   11   11    0  504 +1.7733023571e+02 -8.8007837486e+01 +1.1339435596e+02 2.2814750671e+02 1.2700000000e+00 0.0000e+00 1.0000e+00
<mgrwt>
<rscale>  1 0.45308551e+02</rscale>
<asrwt>0</asrwt>
<pdfrwt beam="1">  1       21 0.42109074e-01 0.11718451e+03</pdfrwt>
<pdfrwt beam="2">  1        2 0.12171468e+00 0.17518226e+02</pdfrwt>
<totfact> 0.32157588e+03</totfact>
</mgrwt>
<rwgt>
<wgt id='1001'> +1.3581722e+00 </wgt>
<wgt id='1002'> +7.7826388e-01 </wgt>
<wgt id='1003'> +7.7814350e-01 </wgt>
<wgt id='1004'> +8.9465447e-01 </wgt>
<wgt id='1005'> +7.0849794e-01 </wgt>
<wgt id='1006'> +1.2084128e+00 </wgt>
<wgt id='1007'> +7.1798146e-01 </wgt>
<wgt id='1008'> +7.1787601e-01 </wgt>
<wgt id='1009'> +8.1925611e-01 </wgt>
<wgt id='1010'> +6.5661395e-01 </wgt>
<wgt id='1011'> +1.5521917e+00 </wgt>
<wgt id='1012'> +8.4989747e-01 </wgt>
<wgt id='1013'> +8.4975815e-01 </wgt>
<wgt id='1014'> +9.8581326e-01 </wgt>
<wgt id='1015'> +7.6951224e-01 </wgt>
<wgt id='1016'> +1.2859144e+00 </wgt>
<wgt id='1017'> +7.4030173e-01 </wgt>
<wgt id='1018'> +7.4018855e-01 </wgt>
<wgt id='1019'> +8.4975815e-01 </wgt>
<wgt id='1020'> +6.7456426e-01 </wgt>
<wgt id='1021'> +1.1441225e+00 </wgt>
<wgt id='1022'> +6.8295977e-01 </wgt>
<wgt id='1023'> +6.8286068e-01 </wgt>
<wgt id='1024'> +7.7814350e-01 </wgt>
<wgt id='1025'> +6.2516527e-01 </wgt>
<wgt id='1026'> +1.4696116e+00 </wgt>
<wgt id='1027'> +8.0844118e-01 </wgt>
<wgt id='1028'> +8.0831011e-01 </wgt>
<wgt id='1029'> +9.3634234e-01 </wgt>
<wgt id='1030'> +7.3265627e-01 </wgt>
<wgt id='1031'> +1.4331346e+00 </wgt>
<wgt id='1032'> +8.1938380e-01 </wgt>
<wgt id='1033'> +8.1925611e-01 </wgt>
<wgt id='1034'> +9.4228962e-01 </wgt>
<wgt id='1035'> +7.4514958e-01 </wgt>
<wgt id='1036'> +1.2751095e+00 </wgt>
<wgt id='1037'> +7.5591633e-01 </wgt>
<wgt id='1038'> +7.5580443e-01 </wgt>
<wgt id='1039'> +8.6287674e-01 </wgt>
<wgt id='1040'> +6.9058156e-01 </wgt>
<wgt id='1041'> +1.6378628e+00 </wgt>
<wgt id='1042'> +8.9480218e-01 </wgt>
<wgt id='1043'> +8.9465447e-01 </wgt>
<wgt id='1044'> +1.0383021e+00 </wgt>
<wgt id='1045'> +8.0932025e-01 </wgt>
<wgt id='1046'> +1.3581722e+00 </wgt>
<wgt id='1047'> +1.3581722e+00 </wgt>
<wgt id='1048'> +1.3581722e+00 </wgt>
<wgt id='1049'> +1.3605094e+00 </wgt>
<wgt id='1050'> +1.3556999e+00 </wgt>
<wgt id='1051'> +1.3578943e+00 </wgt>
<wgt id='1052'> +1.3582158e+00 </wgt>
<wgt id='1053'> +1.3634898e+00 </wgt>
<wgt id='1054'> +1.3570313e+00 </wgt>
<wgt id='1055'> +1.3595496e+00 </wgt>
<wgt id='1056'> +1.3597016e+00 </wgt>
<wgt id='1057'> +1.3600877e+00 </wgt>
<wgt id='1058'> +1.3571326e+00 </wgt>
<wgt id='1059'> +1.3559100e+00 </wgt>
<wgt id='1060'> +1.3565189e+00 </wgt>
<wgt id='1061'> +1.3585799e+00 </wgt>
<wgt id='1062'> +1.3625872e+00 </wgt>
<wgt id='1063'> +1.3598491e+00 </wgt>
<wgt id='1064'> +1.3589051e+00 </wgt>
<wgt id='1065'> +1.3599849e+00 </wgt>
<wgt id='1066'> +1.3555551e+00 </wgt>
<wgt id='1067'> +1.3621074e+00 </wgt>
<wgt id='1068'> +1.3532463e+00 </wgt>
<wgt id='1069'> +1.3567093e+00 </wgt>
<wgt id='1070'> +1.3591127e+00 </wgt>
<wgt id='1071'> +1.3570835e+00 </wgt>
<wgt id='1072'> +1.3598684e+00 </wgt>
<wgt id='1073'> +1.3583802e+00 </wgt>
<wgt id='1074'> +1.3563509e+00 </wgt>
<wgt id='1075'> +1.3551932e+00 </wgt>
<wgt id='1076'> +1.3608776e+00 </wgt>
<wgt id='1077'> +1.3616194e+00 </wgt>
<wgt id='1078'> +1.3576143e+00 </wgt>
<wgt id='1079'> +1.3636878e+00 </wgt>
<wgt id='1080'> +1.3577155e+00 </wgt>
<wgt id='1081'> +1.3602099e+00 </wgt>
<wgt id='1082'> +1.3603103e+00 </wgt>
<wgt id='1083'> +1.3574995e+00 </wgt>
<wgt id='1084'> +1.3561169e+00 </wgt>
<wgt id='1085'> +1.3607188e+00 </wgt>
<wgt id='1086'> +1.3572836e+00 </wgt>
<wgt id='1087'> +1.3580722e+00 </wgt>
<wgt id='1088'> +1.3614214e+00 </wgt>
<wgt id='1089'> +1.3635043e+00 </wgt>
<wgt id='1090'> +1.3602339e+00 </wgt>
<wgt id='1091'> +1.3577011e+00 </wgt>
<wgt id='1092'> +1.3568111e+00 </wgt>
<wgt id='1093'> +1.3577378e+00 </wgt>
<wgt id='1094'> +1.3570258e+00 </wgt>
<wgt id='1095'> +1.3564876e+00 </wgt>
<wgt id='1096'> +1.3542240e+00 </wgt>
<wgt id='1097'> +1.3593287e+00 </wgt>
<wgt id='1098'> +1.3557830e+00 </wgt>
<wgt id='1099'> +1.3577943e+00 </wgt>
<wgt id='1100'> +1.3601359e+00 </wgt>
<wgt id='1101'> +1.3590152e+00 </wgt>
<wgt id='1102'> +1.3596269e+00 </wgt>
<wgt id='1103'> +1.3591131e+00 </wgt>
<wgt id='1104'> +1.3589575e+00 </wgt>
<wgt id='1105'> +1.3603551e+00 </wgt>
<wgt id='1106'> +1.3586309e+00 </wgt>
<wgt id='1107'> +1.3598221e+00 </wgt>
<wgt id='1108'> +1.3575472e+00 </wgt>
<wgt id='1109'> +1.3586552e+00 </wgt>
<wgt id='1110'> +1.3581244e+00 </wgt>
<wgt id='1111'> +1.3571112e+00 </wgt>
<wgt id='1112'> +1.3569780e+00 </wgt>
<wgt id='1113'> +1.3591833e+00 </wgt>
<wgt id='1114'> +1.3582711e+00 </wgt>
<wgt id='1115'> +1.3583853e+00 </wgt>
<wgt id='1116'> +1.3577157e+00 </wgt>
<wgt id='1117'> +1.3587231e+00 </wgt>
<wgt id='1118'> +1.3575705e+00 </wgt>
<wgt id='1119'> +1.3578248e+00 </wgt>
<wgt id='1120'> +1.3591658e+00 </wgt>
<wgt id='1121'> +1.3565930e+00 </wgt>
<wgt id='1122'> +1.3584125e+00 </wgt>
<wgt id='1123'> +1.3573526e+00 </wgt>
<wgt id='1124'> +1.3587818e+00 </wgt>
<wgt id='1125'> +1.3600866e+00 </wgt>
<wgt id='1126'> +1.3588037e+00 </wgt>
<wgt id='1127'> +1.3580407e+00 </wgt>
<wgt id='1128'> +1.3587552e+00 </wgt>
<wgt id='1129'> +1.3569063e+00 </wgt>
<wgt id='1130'> +1.3579560e+00 </wgt>
<wgt id='1131'> +1.3580965e+00 </wgt>
<wgt id='1132'> +1.3587421e+00 </wgt>
<wgt id='1133'> +1.3583541e+00 </wgt>
<wgt id='1134'> +1.3578343e+00 </wgt>
<wgt id='1135'> +1.3572641e+00 </wgt>
<wgt id='1136'> +1.3572230e+00 </wgt>
<wgt id='1137'> +1.3579780e+00 </wgt>
<wgt id='1138'> +1.3585900e+00 </wgt>
<wgt id='1139'> +1.3583968e+00 </wgt>
<wgt id='1140'> +1.3588774e+00 </wgt>
<wgt id='1141'> +1.3584177e+00 </wgt>
<wgt id='1142'> +1.3579941e+00 </wgt>
<wgt id='1143'> +1.3590330e+00 </wgt>
<wgt id='1144'> +1.3580031e+00 </wgt>
<wgt id='1145'> +1.3583085e+00 </wgt>
<wgt id='1146'> +1.3583652e+00 </wgt>
<wgt id='1147'> +1.3585082e+00 </wgt>
<wgt id='1148'> +1.3581722e+00 </wgt>
<wgt id='1149'> +1.3723483e+00 </wgt>
<wgt id='1150'> +1.3822470e+00 </wgt>
<wgt id='1151'> +1.3902376e+00 </wgt>
<wgt id='1152'> +1.3888763e+00 </wgt>
<wgt id='1153'> +1.3444425e+00 </wgt>
<wgt id='1154'> +1.3542560e+00 </wgt>
<wgt id='1155'> +1.3877090e+00 </wgt>
<wgt id='1156'> +1.3971244e+00 </wgt>
<wgt id='1157'> +1.3775729e+00 </wgt>
<wgt id='1158'> +1.3775372e+00 </wgt>
<wgt id='1159'> +1.3317452e+00 </wgt>
<wgt id='1160'> +1.3769665e+00 </wgt>
<wgt id='1161'> +1.3749390e+00 </wgt>
<wgt id='1162'> +1.3600777e+00 </wgt>
<wgt id='1163'> +1.3927213e+00 </wgt>
<wgt id='1164'> +1.3742413e+00 </wgt>
<wgt id='1165'> +1.3744385e+00 </wgt>
<wgt id='1166'> +1.3782121e+00 </wgt>
<wgt id='1167'> +1.3744970e+00 </wgt>
<wgt id='1168'> +1.3723221e+00 </wgt>
<wgt id='1169'> +1.3544739e+00 </wgt>
<wgt id='1170'> +1.3610500e+00 </wgt>
<wgt id='1171'> +1.3585102e+00 </wgt>
<wgt id='1172'> +1.3790490e+00 </wgt>
<wgt id='1173'> +1.3528855e+00 </wgt>
<wgt id='1174'> +1.3894727e+00 </wgt>
<wgt id='1175'> +1.3968853e+00 </wgt>
<wgt id='1176'> +1.3131573e+00 </wgt>
<wgt id='1177'> +1.3980800e+00 </wgt>
<wgt id='1178'> +1.3817674e+00 </wgt>
<wgt id='1179'> +1.3918416e+00 </wgt>
<wgt id='1180'> +1.3847234e+00 </wgt>
<wgt id='1181'> +1.3793553e+00 </wgt>
<wgt id='1182'> +1.3765149e+00 </wgt>
<wgt id='1183'> +1.3581226e+00 </wgt>
<wgt id='1184'> +1.3543681e+00 </wgt>
<wgt id='1185'> +1.3919588e+00 </wgt>
<wgt id='1186'> +1.3768479e+00 </wgt>
<wgt id='1187'> +1.3639884e+00 </wgt>
<wgt id='1188'> +1.3865338e+00 </wgt>
<wgt id='1189'> +1.3779363e+00 </wgt>
<wgt id='1190'> +1.3797461e+00 </wgt>
<wgt id='1191'> +1.3741347e+00 </wgt>
<wgt id='1192'> +1.3531903e+00 </wgt>
<wgt id='1193'> +1.3687954e+00 </wgt>
<wgt id='1194'> +1.3841675e+00 </wgt>
<wgt id='1195'> +1.3717236e+00 </wgt>
<wgt id='1196'> +1.3774931e+00 </wgt>
<wgt id='1197'> +1.3748284e+00 </wgt>
<wgt id='1198'> +1.3951449e+00 </wgt>
<wgt id='1199'> +1.3629041e+00 </wgt>
<wgt id='1200'> +1.3760025e+00 </wgt>
<wgt id='1201'> +1.3730000e+00 </wgt>
<wgt id='1202'> +1.3719808e+00 </wgt>
<wgt id='1203'> +1.3730628e+00 </wgt>
<wgt id='1204'> +1.3880004e+00 </wgt>
<wgt id='1205'> +1.3651908e+00 </wgt>
<wgt id='1206'> +1.3758561e+00 </wgt>
<wgt id='1207'> +1.3813553e+00 </wgt>
<wgt id='1208'> +1.3923862e+00 </wgt>
<wgt id='1209'> +1.3974726e+00 </wgt>
<wgt id='1210'> +1.3551511e+00 </wgt>
<wgt id='1211'> +1.3659144e+00 </wgt>
<wgt id='1212'> +1.3431409e+00 </wgt>
<wgt id='1213'> +1.3870938e+00 </wgt>
<wgt id='1214'> +1.3785587e+00 </wgt>
<wgt id='1215'> +1.4173431e+00 </wgt>
<wgt id='1216'> +1.3670842e+00 </wgt>
<wgt id='1217'> +1.3813650e+00 </wgt>
<wgt id='1218'> +1.3850375e+00 </wgt>
<wgt id='1219'> +1.3485873e+00 </wgt>
<wgt id='1220'> +1.3746228e+00 </wgt>
<wgt id='1221'> +1.3691006e+00 </wgt>
<wgt id='1222'> +1.3573711e+00 </wgt>
<wgt id='1223'> +1.3616119e+00 </wgt>
<wgt id='1224'> +1.3783874e+00 </wgt>
<wgt id='1225'> +1.3977292e+00 </wgt>
<wgt id='1226'> +1.3362644e+00 </wgt>
<wgt id='1227'> +1.4011799e+00 </wgt>
<wgt id='1228'> +1.3680497e+00 </wgt>
<wgt id='1229'> +1.3590113e+00 </wgt>
<wgt id='1230'> +1.3417759e+00 </wgt>
<wgt id='1231'> +1.3744385e+00 </wgt>
<wgt id='1232'> +1.3283189e+00 </wgt>
<wgt id='1233'> +1.3641665e+00 </wgt>
<wgt id='1234'> +1.3903839e+00 </wgt>
<wgt id='1235'> +1.3663988e+00 </wgt>
<wgt id='1236'> +1.3764939e+00 </wgt>
<wgt id='1237'> +1.3479767e+00 </wgt>
<wgt id='1238'> +1.3272066e+00 </wgt>
<wgt id='1239'> +1.3813806e+00 </wgt>
<wgt id='1240'> +1.3842835e+00 </wgt>
<wgt id='1241'> +1.3773204e+00 </wgt>
<wgt id='1242'> +1.3619571e+00 </wgt>
<wgt id='1243'> +1.3683551e+00 </wgt>
<wgt id='1244'> +1.3588887e+00 </wgt>
<wgt id='1245'> +1.3830840e+00 </wgt>
<wgt id='1246'> +1.3519680e+00 </wgt>
<wgt id='1247'> +1.3870003e+00 </wgt>
<wgt id='1248'> +1.3795595e+00 </wgt>
<wgt id='1249'> +1.3725951e+00 </wgt>
<wgt id='1250'> +1.3169440e+00 </wgt>
<wgt id='1251'> +1.3084119e+00 </wgt>
<wgt id='1252'> +1.3432527e+00 </wgt>
<wgt id='1253'> +1.3275826e+00 </wgt>
<wgt id='1254'> +1.1324507e+00 </wgt>
<wgt id='1255'> +1.3300099e+00 </wgt>
<wgt id='1256'> +1.3343351e+00 </wgt>
<wgt id='1257'> +1.3274765e+00 </wgt>
<wgt id='1258'> +1.3265241e+00 </wgt>
<wgt id='1259'> +1.3317911e+00 </wgt>
<wgt id='1260'> +1.3314190e+00 </wgt>
<wgt id='1261'> +1.3281120e+00 </wgt>
<wgt id='1262'> +1.3312201e+00 </wgt>
<wgt id='1263'> +1.3292211e+00 </wgt>
<wgt id='1264'> +1.3298646e+00 </wgt>
<wgt id='1265'> +1.3301289e+00 </wgt>
<wgt id='1266'> +1.3309815e+00 </wgt>
<wgt id='1267'> +1.3290494e+00 </wgt>
<wgt id='1268'> +1.3411315e+00 </wgt>
<wgt id='1269'> +1.3188407e+00 </wgt>
<wgt id='1270'> +1.3266977e+00 </wgt>
<wgt id='1271'> +1.3321149e+00 </wgt>
<wgt id='1272'> +1.3296490e+00 </wgt>
<wgt id='1273'> +1.3301951e+00 </wgt>
<wgt id='1274'> +1.3298745e+00 </wgt>
<wgt id='1275'> +1.3304671e+00 </wgt>
<wgt id='1276'> +1.3275305e+00 </wgt>
<wgt id='1277'> +1.3326332e+00 </wgt>
<wgt id='1278'> +1.3228727e+00 </wgt>
<wgt id='1279'> +1.3354446e+00 </wgt>
<wgt id='1280'> +1.3263805e+00 </wgt>
<wgt id='1281'> +1.3393205e+00 </wgt>
<wgt id='1282'> +1.3383166e+00 </wgt>
<wgt id='1283'> +1.3198523e+00 </wgt>
<wgt id='1284'> +1.3287947e+00 </wgt>
<wgt id='1285'> +1.3298358e+00 </wgt>
<wgt id='1286'> +1.3281456e+00 </wgt>
<wgt id='1287'> +1.3300518e+00 </wgt>
<wgt id='1288'> +1.3302421e+00 </wgt>
<wgt id='1289'> +1.3297270e+00 </wgt>
<wgt id='1290'> +1.3319860e+00 </wgt>
<wgt id='1291'> +1.3293205e+00 </wgt>
<wgt id='1292'> +1.3352098e+00 </wgt>
<wgt id='1293'> +1.3219003e+00 </wgt>
<wgt id='1294'> +1.3229668e+00 </wgt>
<wgt id='1295'> +1.3303113e+00 </wgt>
<wgt id='1296'> +1.3461665e+00 </wgt>
<wgt id='1297'> +1.3495316e+00 </wgt>
<wgt id='1298'> +1.3434769e+00 </wgt>
<wgt id='1299'> +1.3456080e+00 </wgt>
<wgt id='1300'> +1.3468510e+00 </wgt>
<wgt id='1301'> +1.3435265e+00 </wgt>
<wgt id='1302'> +1.3501157e+00 </wgt>
<wgt id='1303'> +1.3429319e+00 </wgt>
<wgt id='1304'> +1.3483618e+00 </wgt>
<wgt id='1305'> +1.3468226e+00 </wgt>
<wgt id='1306'> +1.3452535e+00 </wgt>
<wgt id='1307'> +1.3497584e+00 </wgt>
<wgt id='1308'> +1.3438946e+00 </wgt>
<wgt id='1309'> +1.3469431e+00 </wgt>
<wgt id='1310'> +1.3451790e+00 </wgt>
<wgt id='1311'> +1.3563999e+00 </wgt>
<wgt id='1312'> +1.3424507e+00 </wgt>
<wgt id='1313'> +1.3467997e+00 </wgt>
<wgt id='1314'> +1.3448701e+00 </wgt>
<wgt id='1315'> +1.3465790e+00 </wgt>
<wgt id='1316'> +1.3457564e+00 </wgt>
<wgt id='1317'> +1.3422027e+00 </wgt>
<wgt id='1318'> +1.3537319e+00 </wgt>
<wgt id='1319'> +1.3506434e+00 </wgt>
<wgt id='1320'> +1.3440773e+00 </wgt>
<wgt id='1321'> +1.3416225e+00 </wgt>
<wgt id='1322'> +1.3483691e+00 </wgt>
<wgt id='1323'> +1.3441783e+00 </wgt>
<wgt id='1324'> +1.3480782e+00 </wgt>
<wgt id='1325'> +1.3463943e+00 </wgt>
<wgt id='1326'> +1.3453137e+00 </wgt>
<wgt id='1327'> +1.3484616e+00 </wgt>
<wgt id='1328'> +1.3453121e+00 </wgt>
<wgt id='1329'> +1.3477352e+00 </wgt>
<wgt id='1330'> +1.3453380e+00 </wgt>
<wgt id='1331'> +1.3403577e+00 </wgt>
<wgt id='1332'> +1.3492479e+00 </wgt>
<wgt id='1333'> +1.3551225e+00 </wgt>
<wgt id='1334'> +1.3350755e+00 </wgt>
<wgt id='1335'> +1.3474663e+00 </wgt>
<wgt id='1336'> +1.3458126e+00 </wgt>
<wgt id='1337'> +1.3461665e+00 </wgt>
<wgt id='1338'> +1.3447248e+00 </wgt>
<wgt id='1339'> +1.3453599e+00 </wgt>
<wgt id='1340'> +1.3458990e+00 </wgt>
<wgt id='1341'> +1.3467233e+00 </wgt>
<wgt id='1342'> +1.3470957e+00 </wgt>
<wgt id='1343'> +1.3473287e+00 </wgt>
<wgt id='1344'> +1.3323109e+00 </wgt>
<wgt id='1345'> +1.3366226e+00 </wgt>
<wgt id='1346'> +1.3280467e+00 </wgt>
<wgt id='1347'> +1.3350078e+00 </wgt>
<wgt id='1348'> +1.3302604e+00 </wgt>
<wgt id='1349'> +1.3284087e+00 </wgt>
<wgt id='1350'> +1.3356041e+00 </wgt>
<wgt id='1351'> +1.3322919e+00 </wgt>
<wgt id='1352'> +1.3323467e+00 </wgt>
<wgt id='1353'> +1.3351003e+00 </wgt>
<wgt id='1354'> +1.3303198e+00 </wgt>
<wgt id='1355'> +1.3307270e+00 </wgt>
<wgt id='1356'> +1.3335377e+00 </wgt>
<wgt id='1357'> +1.3318383e+00 </wgt>
<wgt id='1358'> +1.3325857e+00 </wgt>
<wgt id='1359'> +1.3282185e+00 </wgt>
<wgt id='1360'> +1.3425354e+00 </wgt>
<wgt id='1361'> +1.3371509e+00 </wgt>
<wgt id='1362'> +1.3293648e+00 </wgt>
<wgt id='1363'> +1.3325991e+00 </wgt>
<wgt id='1364'> +1.3320331e+00 </wgt>
<wgt id='1365'> +1.3351147e+00 </wgt>
<wgt id='1366'> +1.3315507e+00 </wgt>
<wgt id='1367'> +1.3260467e+00 </wgt>
<wgt id='1368'> +1.3352092e+00 </wgt>
<wgt id='1369'> +1.3310596e+00 </wgt>
<wgt id='1370'> +1.3331049e+00 </wgt>
<wgt id='1371'> +1.3334164e+00 </wgt>
<wgt id='1372'> +1.3311398e+00 </wgt>
<wgt id='1373'> +1.3367702e+00 </wgt>
<wgt id='1374'> +1.3310793e+00 </wgt>
<wgt id='1375'> +1.3359547e+00 </wgt>
<wgt id='1376'> +1.3313294e+00 </wgt>
<wgt id='1377'> +1.3325633e+00 </wgt>
<wgt id='1378'> +1.3322334e+00 </wgt>
<wgt id='1379'> +1.3377488e+00 </wgt>
<wgt id='1380'> +1.3265154e+00 </wgt>
<wgt id='1381'> +1.3264562e+00 </wgt>
<wgt id='1382'> +1.3324398e+00 </wgt>
<wgt id='1383'> +1.3320118e+00 </wgt>
<wgt id='1384'> +1.3327735e+00 </wgt>
<wgt id='1385'> +1.3323109e+00 </wgt>
<wgt id='1386'> +1.3303563e+00 </wgt>
<wgt id='1387'> +1.3312143e+00 </wgt>
<wgt id='1388'> +1.3317357e+00 </wgt>
<wgt id='1389'> +1.3326783e+00 </wgt>
<wgt id='1390'> +1.3330111e+00 </wgt>
<wgt id='1391'> +1.3331133e+00 </wgt>
<wgt id='1392'> +1.3841553e+00 </wgt>
<wgt id='1393'> +1.3837233e+00 </wgt>
<wgt id='1394'> +1.3846040e+00 </wgt>
<wgt id='1395'> +1.3855764e+00 </wgt>
<wgt id='1396'> +1.3831233e+00 </wgt>
<wgt id='1397'> +1.3881412e+00 </wgt>
<wgt id='1398'> +1.3803338e+00 </wgt>
<wgt id='1399'> +1.3837026e+00 </wgt>
<wgt id='1400'> +1.3847350e+00 </wgt>
<wgt id='1401'> +1.3802643e+00 </wgt>
<wgt id='1402'> +1.3889756e+00 </wgt>
<wgt id='1403'> +1.3841675e+00 </wgt>
<wgt id='1404'> +1.3841101e+00 </wgt>
<wgt id='1405'> +1.3815463e+00 </wgt>
<wgt id='1406'> +1.3878208e+00 </wgt>
<wgt id='1407'> +1.3838503e+00 </wgt>
<wgt id='1408'> +1.3843568e+00 </wgt>
<wgt id='1409'> +1.3900562e+00 </wgt>
<wgt id='1410'> +1.3773838e+00 </wgt>
<wgt id='1411'> +1.3812324e+00 </wgt>
<wgt id='1412'> +1.3864394e+00 </wgt>
<wgt id='1413'> +1.3835295e+00 </wgt>
<wgt id='1414'> +1.3848791e+00 </wgt>
<wgt id='1415'> +1.3940025e+00 </wgt>
<wgt id='1416'> +1.3742784e+00 </wgt>
<wgt id='1417'> +1.3814859e+00 </wgt>
<wgt id='1418'> +1.3873943e+00 </wgt>
<wgt id='1419'> +1.3865461e+00 </wgt>
<wgt id='1420'> +1.3822161e+00 </wgt>
<wgt id='1421'> +1.3886138e+00 </wgt>
<wgt id='1422'> +1.3792810e+00 </wgt>
<wgt id='1423'> +1.3834140e+00 </wgt>
<wgt id='1424'> +1.3842436e+00 </wgt>
<wgt id='1425'> +1.3854395e+00 </wgt>
<wgt id='1426'> +1.3830332e+00 </wgt>
<wgt id='1427'> +1.3823803e+00 </wgt>
<wgt id='1428'> +1.3821018e+00 </wgt>
<wgt id='1429'> +1.3817118e+00 </wgt>
<wgt id='1430'> +1.3863574e+00 </wgt>
<wgt id='1431'> +1.3824997e+00 </wgt>
<wgt id='1432'> +1.3853657e+00 </wgt>
<wgt id='1433'> +1.3789783e+00 </wgt>
<wgt id='1434'> +1.3911989e+00 </wgt>
<wgt id='1435'> +1.3846848e+00 </wgt>
<wgt id='1436'> +1.3832127e+00 </wgt>
<wgt id='1437'> +1.3815170e+00 </wgt>
<wgt id='1438'> +1.3907962e+00 </wgt>
<wgt id='1439'> +1.3926811e+00 </wgt>
<wgt id='1440'> +1.3694928e+00 </wgt>
<wgt id='1441'> +1.3873703e+00 </wgt>
<wgt id='1442'> +1.3840182e+00 </wgt>
<wgt id='1443'> +1.3610766e+00 </wgt>
<wgt id='1444'> +1.3606767e+00 </wgt>
<wgt id='1445'> +1.3614935e+00 </wgt>
<wgt id='1446'> +1.3625384e+00 </wgt>
<wgt id='1447'> +1.3600737e+00 </wgt>
<wgt id='1448'> +1.3651990e+00 </wgt>
<wgt id='1449'> +1.3572770e+00 </wgt>
<wgt id='1450'> +1.3604998e+00 </wgt>
<wgt id='1451'> +1.3617119e+00 </wgt>
<wgt id='1452'> +1.3570689e+00 </wgt>
<wgt id='1453'> +1.3649608e+00 </wgt>
<wgt id='1454'> +1.3607339e+00 </wgt>
<wgt id='1455'> +1.3617739e+00 </wgt>
<wgt id='1456'> +1.3579348e+00 </wgt>
<wgt id='1457'> +1.3666684e+00 </wgt>
<wgt id='1458'> +1.3612019e+00 </wgt>
<wgt id='1459'> +1.3609952e+00 </wgt>
<wgt id='1460'> +1.3664662e+00 </wgt>
<wgt id='1461'> +1.3545492e+00 </wgt>
<wgt id='1462'> +1.3569644e+00 </wgt>
<wgt id='1463'> +1.3646200e+00 </wgt>
<wgt id='1464'> +1.3609066e+00 </wgt>
<wgt id='1465'> +1.3613315e+00 </wgt>
<wgt id='1466'> +1.3743739e+00 </wgt>
<wgt id='1467'> +1.3520937e+00 </wgt>
<wgt id='1468'> +1.3622678e+00 </wgt>
<wgt id='1469'> +1.3600436e+00 </wgt>
<wgt id='1470'> +1.3635066e+00 </wgt>
<wgt id='1471'> +1.3594739e+00 </wgt>
<wgt id='1472'> +1.3647973e+00 </wgt>
<wgt id='1473'> +1.3568529e+00 </wgt>
<wgt id='1474'> +1.3609948e+00 </wgt>
<wgt id='1475'> +1.3607735e+00 </wgt>
<wgt id='1476'> +1.3631031e+00 </wgt>
<wgt id='1477'> +1.3596607e+00 </wgt>
<wgt id='1478'> +1.3596727e+00 </wgt>
<wgt id='1479'> +1.3587531e+00 </wgt>
<wgt id='1480'> +1.3589766e+00 </wgt>
<wgt id='1481'> +1.3629802e+00 </wgt>
<wgt id='1482'> +1.3593799e+00 </wgt>
<wgt id='1483'> +1.3625221e+00 </wgt>
<wgt id='1484'> +1.3559834e+00 </wgt>
<wgt id='1485'> +1.3678586e+00 </wgt>
<wgt id='1486'> +1.3628607e+00 </wgt>
<wgt id='1487'> +1.3594344e+00 </wgt>
<wgt id='1488'> +1.3582508e+00 </wgt>
<wgt id='1489'> +1.3678846e+00 </wgt>
<wgt id='1490'> +1.3718887e+00 </wgt>
<wgt id='1491'> +1.3454748e+00 </wgt>
<wgt id='1492'> +1.3665587e+00 </wgt>
<wgt id='1493'> +1.3602037e+00 </wgt>
<wgt id='1494'> +1.3312076e+00 </wgt>
<wgt id='1495'> +1.2992306e+00 </wgt>
<wgt id='1496'> +1.3101585e+00 </wgt>
<wgt id='1497'> +1.3207478e+00 </wgt>
<wgt id='1498'> +1.3409424e+00 </wgt>
<wgt id='1499'> +1.3309485e+00 </wgt>
<wgt id='1500'> +1.3390576e+00 </wgt>
<wgt id='1501'> +1.3377404e+00 </wgt>
<wgt id='1502'> +1.3361941e+00 </wgt>
<wgt id='1503'> +1.3345462e+00 </wgt>
<wgt id='1504'> +1.3328798e+00 </wgt>
<wgt id='1505'> +1.3291533e+00 </wgt>
<wgt id='1506'> +1.3271399e+00 </wgt>
<wgt id='1507'> +1.3251232e+00 </wgt>
<wgt id='1508'> +1.3309485e+00 </wgt>
<wgt id='1509'> +1.3306025e+00 </wgt>
<wgt id='1510'> +1.3307387e+00 </wgt>
<wgt id='1511'> +1.3311908e+00 </wgt>
<wgt id='1512'> +1.3313652e+00 </wgt>
<wgt id='1513'> +1.3319707e+00 </wgt>
<wgt id='1514'> +1.3310166e+00 </wgt>
<wgt id='1515'> +1.3332182e+00 </wgt>
<wgt id='1516'> +1.3335072e+00 </wgt>
<wgt id='1517'> +1.3304294e+00 </wgt>
<wgt id='1518'> +1.3352393e+00 </wgt>
<wgt id='1519'> +1.3306594e+00 </wgt>
<wgt id='1520'> +1.3333415e+00 </wgt>
<wgt id='1521'> +1.3305570e+00 </wgt>
<wgt id='1522'> +1.3298555e+00 </wgt>
<wgt id='1523'> +1.3339910e+00 </wgt>
<wgt id='1524'> +1.3361465e+00 </wgt>
<wgt id='1525'> +1.3301384e+00 </wgt>
<wgt id='1526'> +1.3307297e+00 </wgt>
<wgt id='1527'> +1.3334843e+00 </wgt>
<wgt id='1528'> +1.3297558e+00 </wgt>
<wgt id='1529'> +1.3343188e+00 </wgt>
<wgt id='1530'> +1.3398058e+00 </wgt>
<wgt id='1531'> +1.3275131e+00 </wgt>
<wgt id='1532'> +1.3381248e+00 </wgt>
<wgt id='1533'> +1.3234858e+00 </wgt>
<wgt id='1534'> +1.3289471e+00 </wgt>
<wgt id='1535'> +1.3340688e+00 </wgt>
<wgt id='1536'> +1.3337462e+00 </wgt>
<wgt id='1537'> +1.3303809e+00 </wgt>
<wgt id='1538'> +1.3274505e+00 </wgt>
<wgt id='1539'> +1.3427813e+00 </wgt>
<wgt id='1540'> +1.3328654e+00 </wgt>
<wgt id='1541'> +1.3306536e+00 </wgt>
<wgt id='1542'> +1.3296142e+00 </wgt>
<wgt id='1543'> +1.3390876e+00 </wgt>
<wgt id='1544'> +1.3305294e+00 </wgt>
<wgt id='1545'> +1.3333198e+00 </wgt>
<wgt id='1546'> +1.3297197e+00 </wgt>
<wgt id='1547'> +1.3348928e+00 </wgt>
<wgt id='1548'> +1.3320088e+00 </wgt>
<wgt id='1549'> +1.3300487e+00 </wgt>
<wgt id='1550'> +1.3322143e+00 </wgt>
<wgt id='1551'> +1.3309743e+00 </wgt>
<wgt id='1552'> +1.3296918e+00 </wgt>
<wgt id='1553'> +1.3331981e+00 </wgt>
<wgt id='1554'> +1.3336308e+00 </wgt>
<wgt id='1555'> +1.3271892e+00 </wgt>
<wgt id='1556'> +1.3330857e+00 </wgt>
<wgt id='1557'> +1.3282026e+00 </wgt>
<wgt id='1558'> +1.3221405e+00 </wgt>
<wgt id='1559'> +1.3383673e+00 </wgt>
<wgt id='1560'> +1.3405357e+00 </wgt>
<wgt id='1561'> +1.3279085e+00 </wgt>
<wgt id='1562'> +1.3251106e+00 </wgt>
<wgt id='1563'> +1.3355041e+00 </wgt>
<wgt id='1564'> +1.3319707e+00 </wgt>
<wgt id='1565'> +1.3205248e+00 </wgt>
<wgt id='1566'> +1.3388465e+00 </wgt>
<wgt id='1567'> +1.3293915e+00 </wgt>
<wgt id='1568'> +1.3369453e+00 </wgt>
<wgt id='1569'> +1.3358500e+00 </wgt>
<wgt id='1570'> +1.3342841e+00 </wgt>
<wgt id='1571'> +1.3324357e+00 </wgt>
<wgt id='1572'> +1.3310869e+00 </wgt>
<wgt id='1573'> +1.3274262e+00 </wgt>
<wgt id='1574'> +1.3247835e+00 </wgt>
<wgt id='1575'> +1.3228994e+00 </wgt>
<wgt id='1576'> +1.3293915e+00 </wgt>
<wgt id='1577'> +1.3286442e+00 </wgt>
<wgt id='1578'> +1.3289767e+00 </wgt>
<wgt id='1579'> +1.3297143e+00 </wgt>
<wgt id='1580'> +1.3301013e+00 </wgt>
<wgt id='1581'> +1.3252655e+00 </wgt>
<wgt id='1582'> +1.3266320e+00 </wgt>
<wgt id='1583'> +1.3296987e+00 </wgt>
<wgt id='1584'> +1.3195611e+00 </wgt>
<wgt id='1585'> +1.3288238e+00 </wgt>
<wgt id='1586'> +1.3130631e+00 </wgt>
<wgt id='1587'> +1.3160911e+00 </wgt>
<wgt id='1588'> +1.3349251e+00 </wgt>
<wgt id='1589'> +1.3246836e+00 </wgt>
<wgt id='1590'> +1.3305081e+00 </wgt>
<wgt id='1591'> +1.3223755e+00 </wgt>
<wgt id='1592'> +1.3237154e+00 </wgt>
<wgt id='1593'> +1.3275287e+00 </wgt>
<wgt id='1594'> +1.3247856e+00 </wgt>
<wgt id='1595'> +1.3243064e+00 </wgt>
<wgt id='1596'> +1.3350410e+00 </wgt>
<wgt id='1597'> +1.3295579e+00 </wgt>
<wgt id='1598'> +1.3233282e+00 </wgt>
<wgt id='1599'> +1.3264194e+00 </wgt>
<wgt id='1600'> +1.3307487e+00 </wgt>
<wgt id='1601'> +1.3225759e+00 </wgt>
<wgt id='1602'> +1.3284209e+00 </wgt>
<wgt id='1603'> +1.3265398e+00 </wgt>
<wgt id='1604'> +1.3254147e+00 </wgt>
<wgt id='1605'> +1.3242476e+00 </wgt>
<wgt id='1606'> +1.3267044e+00 </wgt>
<wgt id='1607'> +1.3269036e+00 </wgt>
<wgt id='1608'> +1.3251813e+00 </wgt>
<wgt id='1609'> +1.3276566e+00 </wgt>
<wgt id='1610'> +1.3240412e+00 </wgt>
<wgt id='1611'> +1.3332388e+00 </wgt>
<wgt id='1612'> +1.3435498e+00 </wgt>
<wgt id='1613'> +1.3431132e+00 </wgt>
<wgt id='1614'> +1.3442501e+00 </wgt>
<wgt id='1615'> +1.3445037e+00 </wgt>
<wgt id='1616'> +1.3439933e+00 </wgt>
<wgt id='1617'> +1.3431104e+00 </wgt>
<wgt id='1618'> +1.3440816e+00 </wgt>
<wgt id='1619'> +1.3397879e+00 </wgt>
<wgt id='1620'> +1.3405596e+00 </wgt>
<wgt id='1621'> +1.3451736e+00 </wgt>
<wgt id='1622'> +1.3453844e+00 </wgt>
<wgt id='1623'> +1.3415850e+00 </wgt>
<wgt id='1624'> +1.3423544e+00 </wgt>
<wgt id='1625'> +1.3437549e+00 </wgt>
<wgt id='1626'> +1.3488716e+00 </wgt>
<wgt id='1627'> +1.3431064e+00 </wgt>
<wgt id='1628'> +1.3449687e+00 </wgt>
<wgt id='1629'> +1.3444007e+00 </wgt>
<wgt id='1630'> +1.3444827e+00 </wgt>
<wgt id='1631'> +1.3445656e+00 </wgt>
<wgt id='1632'> +1.3475096e+00 </wgt>
<wgt id='1633'> +1.3428928e+00 </wgt>
<wgt id='1634'> +1.3482593e+00 </wgt>
<wgt id='1635'> +1.3411705e+00 </wgt>
<wgt id='1636'> +1.3431759e+00 </wgt>
<wgt id='1637'> +1.3478890e+00 </wgt>
<wgt id='1638'> +1.3426149e+00 </wgt>
<wgt id='1639'> +1.3458382e+00 </wgt>
<wgt id='1640'> +1.3437571e+00 </wgt>
<wgt id='1641'> +1.3325514e+00 </wgt>
<wgt id='1642'> +1.3422887e+00 </wgt>
<wgt id='1643'> +1.3442750e+00 </wgt>
<wgt id='1644'> +1.3400118e+00 </wgt>
<wgt id='1645'> +1.3416664e+00 </wgt>
<wgt id='1646'> +1.3458572e+00 </wgt>
<wgt id='1647'> +1.3417445e+00 </wgt>
<wgt id='1648'> +1.3426612e+00 </wgt>
<wgt id='1649'> +1.3447608e+00 </wgt>
<wgt id='1650'> +1.3423773e+00 </wgt>
<wgt id='1651'> +1.3440828e+00 </wgt>
<wgt id='1652'> +1.3429138e+00 </wgt>
<wgt id='1653'> +1.3436151e+00 </wgt>
<wgt id='1654'> +1.3424726e+00 </wgt>
<wgt id='1655'> +1.3459577e+00 </wgt>
<wgt id='1656'> +1.3444031e+00 </wgt>
<wgt id='1657'> +1.3423155e+00 </wgt>
<wgt id='1658'> +1.3461324e+00 </wgt>
<wgt id='1659'> +1.3480185e+00 </wgt>
<wgt id='1660'> +1.3431367e+00 </wgt>
<wgt id='1661'> +1.3434517e+00 </wgt>
<wgt id='1662'> +1.3417891e+00 </wgt>
<wgt id='1663'> +1.3438744e+00 </wgt>
<wgt id='1664'> +1.3433146e+00 </wgt>
<wgt id='1665'> +1.3429660e+00 </wgt>
<wgt id='1666'> +1.3432997e+00 </wgt>
<wgt id='1667'> +1.3423314e+00 </wgt>
<wgt id='1668'> +1.3437535e+00 </wgt>
<wgt id='1669'> +1.3436816e+00 </wgt>
<wgt id='1670'> +1.3433702e+00 </wgt>
<wgt id='1671'> +1.3431751e+00 </wgt>
<wgt id='1672'> +1.3471923e+00 </wgt>
<wgt id='1673'> +1.3438632e+00 </wgt>
<wgt id='1674'> +1.3443086e+00 </wgt>
<wgt id='1675'> +1.3441392e+00 </wgt>
<wgt id='1676'> +1.3430204e+00 </wgt>
<wgt id='1677'> +1.3443799e+00 </wgt>
<wgt id='1678'> +1.3425100e+00 </wgt>
<wgt id='1679'> +1.3439603e+00 </wgt>
<wgt id='1680'> +1.3450792e+00 </wgt>
<wgt id='1681'> +1.3448282e+00 </wgt>
<wgt id='1682'> +1.3427302e+00 </wgt>
<wgt id='1683'> +1.3428605e+00 </wgt>
<wgt id='1684'> +1.3439878e+00 </wgt>
<wgt id='1685'> +1.3445714e+00 </wgt>
<wgt id='1686'> +1.3428420e+00 </wgt>
<wgt id='1687'> +1.3430784e+00 </wgt>
<wgt id='1688'> +1.3438835e+00 </wgt>
<wgt id='1689'> +1.3432175e+00 </wgt>
<wgt id='1690'> +1.3438492e+00 </wgt>
<wgt id='1691'> +1.3421100e+00 </wgt>
<wgt id='1692'> +1.3451089e+00 </wgt>
<wgt id='1693'> +1.3436895e+00 </wgt>
<wgt id='1694'> +1.3437392e+00 </wgt>
<wgt id='1695'> +1.3432044e+00 </wgt>
<wgt id='1696'> +1.3446598e+00 </wgt>
<wgt id='1697'> +1.3429341e+00 </wgt>
<wgt id='1698'> +1.3430175e+00 </wgt>
<wgt id='1699'> +1.3425291e+00 </wgt>
<wgt id='1700'> +1.3431911e+00 </wgt>
<wgt id='1701'> +1.3438432e+00 </wgt>
<wgt id='1702'> +1.3444421e+00 </wgt>
<wgt id='1703'> +1.3422552e+00 </wgt>
<wgt id='1704'> +1.3440305e+00 </wgt>
<wgt id='1705'> +1.3433411e+00 </wgt>
<wgt id='1706'> +1.3446536e+00 </wgt>
<wgt id='1707'> +1.3438140e+00 </wgt>
<wgt id='1708'> +1.3443054e+00 </wgt>
<wgt id='1709'> +1.3436189e+00 </wgt>
<wgt id='1710'> +1.3437695e+00 </wgt>
<wgt id='1711'> +1.3442564e+00 </wgt>
<wgt id='1712'> +1.3438706e+00 </wgt>
<wgt id='1713'> +1.3149133e+00 </wgt>
<wgt id='1714'> +1.3678324e+00 </wgt>
<wgt id='1715'> +1.3770763e+00 </wgt>
<wgt id='1716'> +1.3685511e+00 </wgt>
<wgt id='1717'> +1.3792665e+00 </wgt>
<wgt id='1718'> +1.3635483e+00 </wgt>
<wgt id='1719'> +1.3548377e+00 </wgt>
<wgt id='1720'> +1.3984188e+00 </wgt>
<wgt id='1721'> +1.3504082e+00 </wgt>
<wgt id='1722'> +1.3862560e+00 </wgt>
<wgt id='1723'> +1.4050488e+00 </wgt>
<wgt id='1724'> +1.3735776e+00 </wgt>
<wgt id='1725'> +1.4011374e+00 </wgt>
<wgt id='1726'> +1.3883473e+00 </wgt>
<wgt id='1727'> +1.3826144e+00 </wgt>
<wgt id='1728'> +1.3792647e+00 </wgt>
<wgt id='1729'> +1.3795605e+00 </wgt>
<wgt id='1730'> +1.3758718e+00 </wgt>
<wgt id='1731'> +1.2867014e+00 </wgt>
<wgt id='1732'> +1.4118432e+00 </wgt>
<wgt id='1733'> +1.3835622e+00 </wgt>
<wgt id='1734'> +1.3626730e+00 </wgt>
<wgt id='1735'> +1.3228113e+00 </wgt>
<wgt id='1736'> +1.3555635e+00 </wgt>
<wgt id='1737'> +1.3810125e+00 </wgt>
<wgt id='1738'> +1.3854096e+00 </wgt>
<wgt id='1739'> +1.3894626e+00 </wgt>
<wgt id='1740'> +1.3779585e+00 </wgt>
<wgt id='1741'> +1.3613155e+00 </wgt>
<wgt id='1742'> +1.4024976e+00 </wgt>
<wgt id='1743'> +1.3507975e+00 </wgt>
<wgt id='1744'> +1.3818691e+00 </wgt>
<wgt id='1745'> +1.3360737e+00 </wgt>
<wgt id='1746'> +1.3676142e+00 </wgt>
<wgt id='1747'> +1.3740714e+00 </wgt>
<wgt id='1748'> +1.3458477e+00 </wgt>
<wgt id='1749'> +1.4055894e+00 </wgt>
<wgt id='1750'> +1.3767526e+00 </wgt>
<wgt id='1751'> +1.3856896e+00 </wgt>
<wgt id='1752'> +1.3571675e+00 </wgt>
<wgt id='1753'> +1.3552485e+00 </wgt>
<wgt id='1754'> +1.3769827e+00 </wgt>
<wgt id='1755'> +1.3772788e+00 </wgt>
<wgt id='1756'> +1.3716694e+00 </wgt>
<wgt id='1757'> +1.3558470e+00 </wgt>
<wgt id='1758'> +1.3718400e+00 </wgt>
<wgt id='1759'> +1.3634586e+00 </wgt>
<wgt id='1760'> +1.3554846e+00 </wgt>
<wgt id='1761'> +1.3800960e+00 </wgt>
<wgt id='1762'> +1.3826144e+00 </wgt>
<wgt id='1763'> +1.3885667e+00 </wgt>
<wgt id='1764'> +1.4016704e+00 </wgt>
<wgt id='1765'> +1.4038479e+00 </wgt>
<wgt id='1766'> +1.4042629e+00 </wgt>
<wgt id='1767'> +1.3434640e+00 </wgt>
<wgt id='1768'> +1.3491246e+00 </wgt>
<wgt id='1769'> +1.3943199e+00 </wgt>
<wgt id='1770'> +1.4055817e+00 </wgt>
<wgt id='1771'> +1.3827540e+00 </wgt>
<wgt id='1772'> +1.3624811e+00 </wgt>
<wgt id='1773'> +1.3781219e+00 </wgt>
<wgt id='1774'> +1.3428025e+00 </wgt>
<wgt id='1775'> +1.3777660e+00 </wgt>
<wgt id='1776'> +1.3789476e+00 </wgt>
<wgt id='1777'> +1.3966330e+00 </wgt>
<wgt id='1778'> +1.3507917e+00 </wgt>
<wgt id='1779'> +1.3610379e+00 </wgt>
<wgt id='1780'> +1.4118376e+00 </wgt>
<wgt id='1781'> +1.3808463e+00 </wgt>
<wgt id='1782'> +1.4020676e+00 </wgt>
<wgt id='1783'> +1.3583484e+00 </wgt>
<wgt id='1784'> +1.3958671e+00 </wgt>
<wgt id='1785'> +1.3870749e+00 </wgt>
<wgt id='1786'> +1.4009184e+00 </wgt>
<wgt id='1787'> +1.3971774e+00 </wgt>
<wgt id='1788'> +1.3616511e+00 </wgt>
<wgt id='1789'> +1.3837097e+00 </wgt>
<wgt id='1790'> +1.4030050e+00 </wgt>
<wgt id='1791'> +1.3296830e+00 </wgt>
<wgt id='1792'> +1.4068383e+00 </wgt>
<wgt id='1793'> +1.3948852e+00 </wgt>
<wgt id='1794'> +1.3712917e+00 </wgt>
<wgt id='1795'> +1.3944559e+00 </wgt>
<wgt id='1796'> +1.3929704e+00 </wgt>
<wgt id='1797'> +1.3756485e+00 </wgt>
<wgt id='1798'> +1.4006778e+00 </wgt>
<wgt id='1799'> +1.3796689e+00 </wgt>
<wgt id='1800'> +1.3857893e+00 </wgt>
<wgt id='1801'> +1.3645573e+00 </wgt>
<wgt id='1802'> +1.3910405e+00 </wgt>
<wgt id='1803'> +1.3842589e+00 </wgt>
<wgt id='1804'> +1.4032567e+00 </wgt>
<wgt id='1805'> +1.3694880e+00 </wgt>
<wgt id='1806'> +1.3804545e+00 </wgt>
<wgt id='1807'> +1.3515933e+00 </wgt>
<wgt id='1808'> +1.3573548e+00 </wgt>
<wgt id='1809'> +1.3712007e+00 </wgt>
<wgt id='1810'> +1.3682271e+00 </wgt>
<wgt id='1811'> +1.3895748e+00 </wgt>
<wgt id='1812'> +1.3685799e+00 </wgt>
<wgt id='1813'> +1.3946385e+00 </wgt>
<wgt id='1814'> +1.3876849e+00 </wgt>
<wgt id='1815'> +1.4062446e+00 </wgt>
<wgt id='1816'> +1.3458707e+00 </wgt>
<wgt id='1817'> +1.3728537e+00 </wgt>
<wgt id='1818'> +1.3369689e+00 </wgt>
<wgt id='1819'> +1.3617724e+00 </wgt>
<wgt id='1820'> +1.3536039e+00 </wgt>
<wgt id='1821'> +1.3892816e+00 </wgt>
<wgt id='1822'> +1.3757994e+00 </wgt>
<wgt id='1823'> +1.3352459e+00 </wgt>
<wgt id='1824'> +1.3340079e+00 </wgt>
<wgt id='1825'> +1.3442116e+00 </wgt>
<wgt id='1826'> +1.3245209e+00 </wgt>
<wgt id='1827'> +1.3002883e+00 </wgt>
<wgt id='1828'> +1.3728096e+00 </wgt>
<wgt id='1829'> +1.3750508e+00 </wgt>
<wgt id='1830'> +1.3148669e+00 </wgt>
<wgt id='1831'> +1.3562518e+00 </wgt>
<wgt id='1832'> +1.3369852e+00 </wgt>
<wgt id='1833'> +1.3282096e+00 </wgt>
<wgt id='1834'> +1.3287715e+00 </wgt>
<wgt id='1835'> +1.3565256e+00 </wgt>
<wgt id='1836'> +1.3475072e+00 </wgt>
<wgt id='1837'> +1.3691859e+00 </wgt>
<wgt id='1838'> +1.3194858e+00 </wgt>
<wgt id='1839'> +1.4158450e+00 </wgt>
<wgt id='1840'> +1.3399847e+00 </wgt>
<wgt id='1841'> +1.3458030e+00 </wgt>
<wgt id='1842'> +1.3529499e+00 </wgt>
<wgt id='1843'> +1.3148940e+00 </wgt>
<wgt id='1844'> +1.3292885e+00 </wgt>
<wgt id='1845'> +1.3413749e+00 </wgt>
<wgt id='1846'> +1.3650655e+00 </wgt>
<wgt id='1847'> +1.3369411e+00 </wgt>
<wgt id='1848'> +1.3224991e+00 </wgt>
<wgt id='1849'> +1.3243569e+00 </wgt>
<wgt id='1850'> +1.3623754e+00 </wgt>
<wgt id='1851'> +1.3376446e+00 </wgt>
<wgt id='1852'> +1.3607102e+00 </wgt>
<wgt id='1853'> +1.3314803e+00 </wgt>
<wgt id='1854'> +1.3601346e+00 </wgt>
<wgt id='1855'> +1.3463381e+00 </wgt>
<wgt id='1856'> +1.3359273e+00 </wgt>
<wgt id='1857'> +1.3749674e+00 </wgt>
<wgt id='1858'> +1.3597648e+00 </wgt>
<wgt id='1859'> +1.3486918e+00 </wgt>
<wgt id='1860'> +1.3405715e+00 </wgt>
<wgt id='1861'> +1.3286829e+00 </wgt>
<wgt id='1862'> +1.3818125e+00 </wgt>
<wgt id='1863'> +1.3386108e+00 </wgt>
<wgt id='1864'> +1.3459429e+00 </wgt>
<wgt id='1865'> +1.3291421e+00 </wgt>
<wgt id='1866'> +1.3461585e+00 </wgt>
<wgt id='1867'> +1.3524180e+00 </wgt>
<wgt id='1868'> +1.3431281e+00 </wgt>
<wgt id='1869'> +1.3670407e+00 </wgt>
<wgt id='1870'> +1.3567160e+00 </wgt>
<wgt id='1871'> +1.3415320e+00 </wgt>
<wgt id='1872'> +1.3310542e+00 </wgt>
<wgt id='1873'> +1.3728637e+00 </wgt>
<wgt id='1874'> +1.3443763e+00 </wgt>
<wgt id='1875'> +1.3393985e+00 </wgt>
<wgt id='1876'> +1.3521869e+00 </wgt>
<wgt id='1877'> +1.3470159e+00 </wgt>
<wgt id='1878'> +1.3451334e+00 </wgt>
<wgt id='1879'> +1.3635724e+00 </wgt>
<wgt id='1880'> +1.2851407e+00 </wgt>
<wgt id='1881'> +1.3416702e+00 </wgt>
<wgt id='1882'> +1.3244643e+00 </wgt>
<wgt id='1883'> +1.4016055e+00 </wgt>
<wgt id='1884'> +1.3408237e+00 </wgt>
<wgt id='1885'> +1.3221550e+00 </wgt>
<wgt id='1886'> +1.3117512e+00 </wgt>
<wgt id='1887'> +1.3564461e+00 </wgt>
<wgt id='1888'> +1.3648883e+00 </wgt>
<wgt id='1889'> +1.3341349e+00 </wgt>
<wgt id='1890'> +1.3753999e+00 </wgt>
<wgt id='1891'> +1.3455665e+00 </wgt>
<wgt id='1892'> +1.3523428e+00 </wgt>
<wgt id='1893'> +1.3393832e+00 </wgt>
<wgt id='1894'> +1.3681112e+00 </wgt>
<wgt id='1895'> +1.3461036e+00 </wgt>
<wgt id='1896'> +1.3336465e+00 </wgt>
<wgt id='1897'> +1.3441735e+00 </wgt>
<wgt id='1898'> +1.3436732e+00 </wgt>
<wgt id='1899'> +1.3486111e+00 </wgt>
<wgt id='1900'> +1.3371883e+00 </wgt>
<wgt id='1901'> +1.3261607e+00 </wgt>
<wgt id='1902'> +1.3208231e+00 </wgt>
<wgt id='1903'> +1.3471630e+00 </wgt>
<wgt id='1904'> +1.3586771e+00 </wgt>
<wgt id='1905'> +1.3634742e+00 </wgt>
<wgt id='1906'> +1.3266109e+00 </wgt>
<wgt id='1907'> +1.3438965e+00 </wgt>
<wgt id='1908'> +1.3350333e+00 </wgt>
<wgt id='1909'> +1.3350123e+00 </wgt>
<wgt id='1910'> +1.3539661e+00 </wgt>
<wgt id='1911'> +1.2995377e+00 </wgt>
<wgt id='1912'> +1.3487467e+00 </wgt>
<wgt id='1913'> +1.3366418e+00 </wgt>
<wgt id='1914'> +1.3703585e+00 </wgt>
<wgt id='1915'> +1.3585817e+00 </wgt>
<wgt id='1916'> +1.3314221e+00 </wgt>
<wgt id='1917'> +1.2666142e+00 </wgt>
<wgt id='1918'> +1.3562705e+00 </wgt>
<wgt id='1919'> +1.3458707e+00 </wgt>
<wgt id='1920'> +1.3728537e+00 </wgt>
<wgt id='1921'> +1.3369689e+00 </wgt>
<wgt id='1922'> +1.3617724e+00 </wgt>
<wgt id='1923'> +1.3536039e+00 </wgt>
<wgt id='1924'> +1.3892816e+00 </wgt>
<wgt id='1925'> +1.3757994e+00 </wgt>
<wgt id='1926'> +1.3352459e+00 </wgt>
<wgt id='1927'> +1.3340079e+00 </wgt>
<wgt id='1928'> +1.3442116e+00 </wgt>
<wgt id='1929'> +1.3245209e+00 </wgt>
<wgt id='1930'> +1.3002883e+00 </wgt>
<wgt id='1931'> +1.3728096e+00 </wgt>
<wgt id='1932'> +1.3750508e+00 </wgt>
<wgt id='1933'> +1.3148669e+00 </wgt>
<wgt id='1934'> +1.3562518e+00 </wgt>
<wgt id='1935'> +1.3369852e+00 </wgt>
<wgt id='1936'> +1.3282096e+00 </wgt>
<wgt id='1937'> +1.3287715e+00 </wgt>
<wgt id='1938'> +1.3565256e+00 </wgt>
<wgt id='1939'> +1.3475072e+00 </wgt>
<wgt id='1940'> +1.3691859e+00 </wgt>
<wgt id='1941'> +1.3194858e+00 </wgt>
<wgt id='1942'> +1.4158450e+00 </wgt>
<wgt id='1943'> +1.3399847e+00 </wgt>
<wgt id='1944'> +1.3458030e+00 </wgt>
<wgt id='1945'> +1.3529499e+00 </wgt>
<wgt id='1946'> +1.3148940e+00 </wgt>
<wgt id='1947'> +1.3292885e+00 </wgt>
<wgt id='1948'> +1.3413749e+00 </wgt>
<wgt id='1949'> +1.3650655e+00 </wgt>
<wgt id='1950'> +1.3369411e+00 </wgt>
<wgt id='1951'> +1.3224991e+00 </wgt>
<wgt id='1952'> +1.3243569e+00 </wgt>
<wgt id='1953'> +1.3623754e+00 </wgt>
<wgt id='1954'> +1.3376446e+00 </wgt>
<wgt id='1955'> +1.3607102e+00 </wgt>
<wgt id='1956'> +1.3314803e+00 </wgt>
<wgt id='1957'> +1.3601346e+00 </wgt>
<wgt id='1958'> +1.3463381e+00 </wgt>
<wgt id='1959'> +1.3359273e+00 </wgt>
<wgt id='1960'> +1.3749674e+00 </wgt>
<wgt id='1961'> +1.3597648e+00 </wgt>
<wgt id='1962'> +1.3486918e+00 </wgt>
<wgt id='1963'> +1.3405715e+00 </wgt>
<wgt id='1964'> +1.3286829e+00 </wgt>
<wgt id='1965'> +1.3818125e+00 </wgt>
<wgt id='1966'> +1.3386108e+00 </wgt>
<wgt id='1967'> +1.3459429e+00 </wgt>
<wgt id='1968'> +1.3291421e+00 </wgt>
<wgt id='1969'> +1.3461585e+00 </wgt>
<wgt id='1970'> +1.3524180e+00 </wgt>
<wgt id='1971'> +1.3431281e+00 </wgt>
<wgt id='1972'> +1.3670407e+00 </wgt>
<wgt id='1973'> +1.3567160e+00 </wgt>
<wgt id='1974'> +1.3415320e+00 </wgt>
<wgt id='1975'> +1.3310542e+00 </wgt>
<wgt id='1976'> +1.3728637e+00 </wgt>
<wgt id='1977'> +1.3443763e+00 </wgt>
<wgt id='1978'> +1.3393985e+00 </wgt>
<wgt id='1979'> +1.3521869e+00 </wgt>
<wgt id='1980'> +1.3470159e+00 </wgt>
<wgt id='1981'> +1.3451334e+00 </wgt>
<wgt id='1982'> +1.3635724e+00 </wgt>
<wgt id='1983'> +1.2851407e+00 </wgt>
<wgt id='1984'> +1.3416702e+00 </wgt>
<wgt id='1985'> +1.3244643e+00 </wgt>
<wgt id='1986'> +1.4016055e+00 </wgt>
<wgt id='1987'> +1.3408237e+00 </wgt>
<wgt id='1988'> +1.3221550e+00 </wgt>
<wgt id='1989'> +1.3117512e+00 </wgt>
<wgt id='1990'> +1.3564461e+00 </wgt>
<wgt id='1991'> +1.3648883e+00 </wgt>
<wgt id='1992'> +1.3341349e+00 </wgt>
<wgt id='1993'> +1.3753999e+00 </wgt>
<wgt id='1994'> +1.3455665e+00 </wgt>
<wgt id='1995'> +1.3523428e+00 </wgt>
<wgt id='1996'> +1.3393832e+00 </wgt>
<wgt id='1997'> +1.3681112e+00 </wgt>
<wgt id='1998'> +1.3461036e+00 </wgt>
<wgt id='1999'> +1.3336465e+00 </wgt>
<wgt id='2000'> +1.3441735e+00 </wgt>
<wgt id='2001'> +1.3436732e+00 </wgt>
<wgt id='2002'> +1.3486111e+00 </wgt>
<wgt id='2003'> +1.3371883e+00 </wgt>
<wgt id='2004'> +1.3261607e+00 </wgt>
<wgt id='2005'> +1.3208231e+00 </wgt>
<wgt id='2006'> +1.3471630e+00 </wgt>
<wgt id='2007'> +1.3586771e+00 </wgt>
<wgt id='2008'> +1.3634742e+00 </wgt>
<wgt id='2009'> +1.3266109e+00 </wgt>
<wgt id='2010'> +1.3438965e+00 </wgt>
<wgt id='2011'> +1.3350333e+00 </wgt>
<wgt id='2012'> +1.3350123e+00 </wgt>
<wgt id='2013'> +1.3539661e+00 </wgt>
<wgt id='2014'> +1.2995377e+00 </wgt>
<wgt id='2015'> +1.3487467e+00 </wgt>
<wgt id='2016'> +1.3366418e+00 </wgt>
<wgt id='2017'> +1.3703585e+00 </wgt>
<wgt id='2018'> +1.3585817e+00 </wgt>
<wgt id='2019'> +1.3314221e+00 </wgt>
<wgt id='2020'> +1.3379466e+00 </wgt>
<wgt id='2021'> +1.3553304e+00 </wgt>
<wgt id='2022'> +1.3412832e+00 </wgt>
</rwgt>
</event>
<event>
13      1 +1.3581722e+00 1.73803800e+02 7.81860800e-03 1.08748400e-01
        2 -1    0    0  501    0 +0.0000000000e+00 +0.0000000000e+00 +2.9033264586e+03 2.9033264586e+03 2.5500000000e-03 0.0000e+00 -1.0000e+00
       21 -1    0    0  502  503 +0.0000000000e+00 +0.0000000000e+00 -1.8541449532e+02 1.8541449532e+02 0.0000000000e+00 0.0000e+00 1.0000e+00
  8000001  2    1    2  502    0 -1.1326371472e+02 -3.7477689196e+00 +6.6974639387e+02 9.0631233813e+02 5.9999925610e+02 0.0000e+00 0.0000e+00
        1  1    1    2  501    0 +6.9827054144e+01 +2.7971674599e+01 +2.1052386968e+03 2.1065821139e+03 5.0400000000e-03 0.0000e+00 -1.0000e+00
       -5  1    1    2    0  503 +4.3436660579e+01 -2.4223905680e+01 -5.7073127354e+01 7.5846501932e+01 4.6700000000e+00 0.0000e+00 1.0000e+00
        6  2    3    3  502    0 -7.0288480011e+01 +2.1431643766e+02 +1.2344457057e+02 3.1030890338e+02 1.7372693412e+02 0.0000e+00 0.0000e+00
        5  1    6    6  502    0 +2.2586953508e+01 +1.2926686277e+02 +8.5056189581e+01 1.5644953361e+02 4.6700000000e+00 0.0000e+00 -1.0000e+00
       24  2    6    6    0    0 -9.2875433519e+01 +8.5049574891e+01 +3.8388380988e+01 1.5385936977e+02 7.9622619464e+01 0.0000e+00 0.0000e+00
        2  1    8    8  504    0 -8.6002092146e+01 +7.8614371263e+01 +5.9435616197e+01 1.3080203248e+02 2.5500000000e-03 0.0000e+00 -1.0000e+00
       -1  1    8    8    0  504 -6.8733413732e+00 +6.4352036283e+00 -2.1047235209e+01 2.3057337286e+01 5.0400000000e-03 0.0000e+00 1.0000e+00
       23  2    3    3    0    0 -4.2975234713e+01 -2.1806420658e+02 +5.4630182330e+02 5.9600343475e+02 8.5880982153e+01 0.0000e+00 0.0000e+00
        1  1   11   11  505    0 +2.4329929121e+01 -4.8857166320e+01 +1.5699339729e+02 1.6621039369e+02 5.0400000000e-03 0.0000e+00 -1.0000e+00
       -1  1   11   11    0  505 -6.7305163834e+01 -1.6920704026e+02 +3.8930842601e+02 4.2979304106e+02 5.0400000000e-03 0.0000e+00 1.0000e+00
<mgrwt>
<rscale>  1 0.11447499e+03</rscale>
<asrwt>0</asrwt>
<pdfrwt beam="1">  1       21 0.28525309e-01 0.17380384e+03</pdfrwt>
<pdfrwt beam="2">  1        2 0.44666558e+00 0.75398360e+02</pdfrwt>
<totfact> 0.47197442e+02</totfact>
</mgrwt>
<rwgt>
<wgt id='1001'> +1.3581722e+00 </wgt>
<wgt id='1002'> +7.9477065e-01 </wgt>
<wgt id='1003'> +7.9472109e-01 </wgt>
<wgt id='1004'> +9.5823119e-01 </wgt>
<wgt id='1005'> +6.4071639e-01 </wgt>
<wgt id='1006'> +1.2286620e+00 </wgt>
<wgt id='1007'> +7.3383009e-01 </wgt>
<wgt id='1008'> +7.3378603e-01 </wgt>
<wgt id='1009'> +8.7834771e-01 </wgt>
<wgt id='1010'> +5.9603292e-01 </wgt>
<wgt id='1011'> +1.5193267e+00 </wgt>
<wgt id='1012'> +8.6705540e-01 </wgt>
<wgt id='1013'> +8.6699894e-01 </wgt>
<wgt id='1014'> +1.0545744e+00 </wgt>
<wgt id='1015'> +6.9281745e-01 </wgt>
<wgt id='1016'> +1.2100478e+00 </wgt>
<wgt id='1017'> +7.2298726e-01 </wgt>
<wgt id='1018'> +7.2294334e-01 </wgt>
<wgt id='1019'> +8.6699894e-01 </wgt>
<wgt id='1020'> +5.8617646e-01 </wgt>
<wgt id='1021'> +1.0946622e+00 </wgt>
<wgt id='1022'> +6.6755083e-01 </wgt>
<wgt id='1023'> +6.6751182e-01 </wgt>
<wgt id='1024'> +7.9472109e-01 </wgt>
<wgt id='1025'> +5.4529660e-01 </wgt>
<wgt id='1026'> +1.3536265e+00 </wgt>
<wgt id='1027'> +7.8874328e-01 </wgt>
<wgt id='1028'> +7.8869318e-01 </wgt>
<wgt id='1029'> +9.5416943e-01 </wgt>
<wgt id='1030'> +6.3384251e-01 </wgt>
<wgt id='1031'> +1.5372733e+00 </wgt>
<wgt id='1032'> +8.7840431e-01 </wgt>
<wgt id='1033'> +8.7834771e-01 </wgt>
<wgt id='1034'> +1.0645499e+00 </wgt>
<wgt id='1035'> +7.0357979e-01 </wgt>
<wgt id='1036'> +1.3906847e+00 </wgt>
<wgt id='1037'> +8.1105098e-01 </wgt>
<wgt id='1038'> +8.1100060e-01 </wgt>
<wgt id='1039'> +9.7580311e-01 </wgt>
<wgt id='1040'> +6.5451224e-01 </wgt>
<wgt id='1041'> +1.7196791e+00 </wgt>
<wgt id='1042'> +9.5829557e-01 </wgt>
<wgt id='1043'> +9.5823119e-01 </wgt>
<wgt id='1044'> +1.1715827e+00 </wgt>
<wgt id='1045'> +7.6079271e-01 </wgt>
<wgt id='1046'> +1.3581722e+00 </wgt>
<wgt id='1047'> +1.3581722e+00 </wgt>
<wgt id='1048'> +1.3581722e+00 </wgt>
<wgt id='1049'> +1.3628687e+00 </wgt>
<wgt id='1050'> +1.3561285e+00 </wgt>
<wgt id='1051'> +1.3642368e+00 </wgt>
<wgt id='1052'> +1.3600101e+00 </wgt>
<wgt id='1053'> +1.3636401e+00 </wgt>
<wgt id='1054'> +1.3570426e+00 </wgt>
<wgt id='1055'> +1.3592634e+00 </wgt>
<wgt id='1056'> +1.3619512e+00 </wgt>
<wgt id='1057'> +1.3596258e+00 </wgt>
<wgt id='1058'> +1.3596987e+00 </wgt>
<wgt id='1059'> +1.3479881e+00 </wgt>
<wgt id='1060'> +1.3571234e+00 </wgt>
<wgt id='1061'> +1.3618314e+00 </wgt>
<wgt id='1062'> +1.3572260e+00 </wgt>
<wgt id='1063'> +1.3597075e+00 </wgt>
<wgt id='1064'> +1.3570773e+00 </wgt>
<wgt id='1065'> +1.3561663e+00 </wgt>
<wgt id='1066'> +1.3537250e+00 </wgt>
<wgt id='1067'> +1.3606572e+00 </wgt>
<wgt id='1068'> +1.3493600e+00 </wgt>
<wgt id='1069'> +1.3612714e+00 </wgt>
<wgt id='1070'> +1.3588982e+00 </wgt>
<wgt id='1071'> +1.3560500e+00 </wgt>
<wgt id='1072'> +1.3640379e+00 </wgt>
<wgt id='1073'> +1.3621066e+00 </wgt>
<wgt id='1074'> +1.3600480e+00 </wgt>
<wgt id='1075'> +1.3520432e+00 </wgt>
<wgt id='1076'> +1.3619924e+00 </wgt>
<wgt id='1077'> +1.3675872e+00 </wgt>
<wgt id='1078'> +1.3604629e+00 </wgt>
<wgt id='1079'> +1.3651964e+00 </wgt>
<wgt id='1080'> +1.3601778e+00 </wgt>
<wgt id='1081'> +1.3546853e+00 </wgt>
<wgt id='1082'> +1.3628156e+00 </wgt>
<wgt id='1083'> +1.3577587e+00 </wgt>
<wgt id='1084'> +1.3513938e+00 </wgt>
<wgt id='1085'> +1.3627109e+00 </wgt>
<wgt id='1086'> +1.3503242e+00 </wgt>
<wgt id='1087'> +1.3513738e+00 </wgt>
<wgt id='1088'> +1.3601140e+00 </wgt>
<wgt id='1089'> +1.3548363e+00 </wgt>
<wgt id='1090'> +1.3527308e+00 </wgt>
<wgt id='1091'> +1.3566434e+00 </wgt>
<wgt id='1092'> +1.3600695e+00 </wgt>
<wgt id='1093'> +1.3595272e+00 </wgt>
<wgt id='1094'> +1.3601534e+00 </wgt>
<wgt id='1095'> +1.3556076e+00 </wgt>
<wgt id='1096'> +1.3607001e+00 </wgt>
<wgt id='1097'> +1.3614953e+00 </wgt>
<wgt id='1098'> +1.3536912e+00 </wgt>
<wgt id='1099'> +1.3607302e+00 </wgt>
<wgt id='1100'> +1.3588584e+00 </wgt>
<wgt id='1101'> +1.3543773e+00 </wgt>
<wgt id='1102'> +1.3645920e+00 </wgt>
<wgt id='1103'> +1.3611804e+00 </wgt>
<wgt id='1104'> +1.3581664e+00 </wgt>
<wgt id='1105'> +1.3529364e+00 </wgt>
<wgt id='1106'> +1.3619770e+00 </wgt>
<wgt id='1107'> +1.3550204e+00 </wgt>
<wgt id='1108'> +1.3560839e+00 </wgt>
<wgt id='1109'> +1.3630349e+00 </wgt>
<wgt id='1110'> +1.3624275e+00 </wgt>
<wgt id='1111'> +1.3615756e+00 </wgt>
<wgt id='1112'> +1.3661489e+00 </wgt>
<wgt id='1113'> +1.3568014e+00 </wgt>
<wgt id='1114'> +1.3602783e+00 </wgt>
<wgt id='1115'> +1.3622563e+00 </wgt>
<wgt id='1116'> +1.3626667e+00 </wgt>
<wgt id='1117'> +1.3569922e+00 </wgt>
<wgt id='1118'> +1.3570328e+00 </wgt>
<wgt id='1119'> +1.3599235e+00 </wgt>
<wgt id='1120'> +1.3558569e+00 </wgt>
<wgt id='1121'> +1.3565338e+00 </wgt>
<wgt id='1122'> +1.3592599e+00 </wgt>
<wgt id='1123'> +1.3575043e+00 </wgt>
<wgt id='1124'> +1.3585817e+00 </wgt>
<wgt id='1125'> +1.3565417e+00 </wgt>
<wgt id='1126'> +1.3580318e+00 </wgt>
<wgt id='1127'> +1.3573978e+00 </wgt>
<wgt id='1128'> +1.3583726e+00 </wgt>
<wgt id='1129'> +1.3590659e+00 </wgt>
<wgt id='1130'> +1.3575080e+00 </wgt>
<wgt id='1131'> +1.3595616e+00 </wgt>
<wgt id='1132'> +1.3588924e+00 </wgt>
<wgt id='1133'> +1.3581124e+00 </wgt>
<wgt id='1134'> +1.3574784e+00 </wgt>
<wgt id='1135'> +1.3571585e+00 </wgt>
<wgt id='1136'> +1.3573026e+00 </wgt>
<wgt id='1137'> +1.3559982e+00 </wgt>
<wgt id='1138'> +1.3597055e+00 </wgt>
<wgt id='1139'> +1.3583525e+00 </wgt>
<wgt id='1140'> +1.3586612e+00 </wgt>
<wgt id='1141'> +1.3565647e+00 </wgt>
<wgt id='1142'> +1.3598466e+00 </wgt>
<wgt id='1143'> +1.3589020e+00 </wgt>
<wgt id='1144'> +1.3572825e+00 </wgt>
<wgt id='1145'> +1.3574010e+00 </wgt>
<wgt id='1146'> +1.3585038e+00 </wgt>
<wgt id='1147'> +1.3578720e+00 </wgt>
<wgt id='1148'> +1.3581722e+00 </wgt>
<wgt id='1149'> +1.2706848e+00 </wgt>
<wgt id='1150'> +1.2695309e+00 </wgt>
<wgt id='1151'> +1.2728484e+00 </wgt>
<wgt id='1152'> +1.3119659e+00 </wgt>
<wgt id='1153'> +1.2561744e+00 </wgt>
<wgt id='1154'> +1.3002930e+00 </wgt>
<wgt id='1155'> +1.2681319e+00 </wgt>
<wgt id='1156'> +1.2216469e+00 </wgt>
<wgt id='1157'> +1.2903159e+00 </wgt>
<wgt id='1158'> +1.2459716e+00 </wgt>
<wgt id='1159'> +1.2695587e+00 </wgt>
<wgt id='1160'> +1.2894342e+00 </wgt>
<wgt id='1161'> +1.2607288e+00 </wgt>
<wgt id='1162'> +1.2516423e+00 </wgt>
<wgt id='1163'> +1.2764578e+00 </wgt>
<wgt id='1164'> +1.2722500e+00 </wgt>
<wgt id='1165'> +1.2935345e+00 </wgt>
<wgt id='1166'> +1.2932382e+00 </wgt>
<wgt id='1167'> +1.2754388e+00 </wgt>
<wgt id='1168'> +1.2577525e+00 </wgt>
<wgt id='1169'> +1.2566750e+00 </wgt>
<wgt id='1170'> +1.3212628e+00 </wgt>
<wgt id='1171'> +1.3163714e+00 </wgt>
<wgt id='1172'> +1.2736535e+00 </wgt>
<wgt id='1173'> +1.2437020e+00 </wgt>
<wgt id='1174'> +1.3088160e+00 </wgt>
<wgt id='1175'> +1.3170344e+00 </wgt>
<wgt id='1176'> +1.2318742e+00 </wgt>
<wgt id='1177'> +1.2874153e+00 </wgt>
<wgt id='1178'> +1.2501931e+00 </wgt>
<wgt id='1179'> +1.2703507e+00 </wgt>
<wgt id='1180'> +1.3042170e+00 </wgt>
<wgt id='1181'> +1.2533187e+00 </wgt>
<wgt id='1182'> +1.2937165e+00 </wgt>
<wgt id='1183'> +1.2871259e+00 </wgt>
<wgt id='1184'> +1.2469076e+00 </wgt>
<wgt id='1185'> +1.2986023e+00 </wgt>
<wgt id='1186'> +1.2433286e+00 </wgt>
<wgt id='1187'> +1.2276441e+00 </wgt>
<wgt id='1188'> +1.1813677e+00 </wgt>
<wgt id='1189'> +1.2288600e+00 </wgt>
<wgt id='1190'> +1.2859017e+00 </wgt>
<wgt id='1191'> +1.2608553e+00 </wgt>
<wgt id='1192'> +1.2605305e+00 </wgt>
<wgt id='1193'> +1.2356208e+00 </wgt>
<wgt id='1194'> +1.2554581e+00 </wgt>
<wgt id='1195'> +1.2740422e+00 </wgt>
<wgt id='1196'> +1.3077875e+00 </wgt>
<wgt id='1197'> +1.2465422e+00 </wgt>
<wgt id='1198'> +1.2540338e+00 </wgt>
<wgt id='1199'> +1.2546917e+00 </wgt>
<wgt id='1200'> +1.3044664e+00 </wgt>
<wgt id='1201'> +1.2702764e+00 </wgt>
<wgt id='1202'> +1.2642125e+00 </wgt>
<wgt id='1203'> +1.3278237e+00 </wgt>
<wgt id='1204'> +1.2901824e+00 </wgt>
<wgt id='1205'> +1.2142643e+00 </wgt>
<wgt id='1206'> +1.2962471e+00 </wgt>
<wgt id='1207'> +1.3094989e+00 </wgt>
<wgt id='1208'> +1.2820191e+00 </wgt>
<wgt id='1209'> +1.3296725e+00 </wgt>
<wgt id='1210'> +1.2148832e+00 </wgt>
<wgt id='1211'> +1.2908631e+00 </wgt>
<wgt id='1212'> +1.2447423e+00 </wgt>
<wgt id='1213'> +1.2841675e+00 </wgt>
<wgt id='1214'> +1.3193266e+00 </wgt>
<wgt id='1215'> +1.2344723e+00 </wgt>
<wgt id='1216'> +1.2755727e+00 </wgt>
<wgt id='1217'> +1.2829144e+00 </wgt>
<wgt id='1218'> +1.2495928e+00 </wgt>
<wgt id='1219'> +1.2557004e+00 </wgt>
<wgt id='1220'> +1.2893248e+00 </wgt>
<wgt id='1221'> +1.2233022e+00 </wgt>
<wgt id='1222'> +1.2940988e+00 </wgt>
<wgt id='1223'> +1.2880824e+00 </wgt>
<wgt id='1224'> +1.2573403e+00 </wgt>
<wgt id='1225'> +1.3641488e+00 </wgt>
<wgt id='1226'> +1.2331653e+00 </wgt>
<wgt id='1227'> +1.3189878e+00 </wgt>
<wgt id='1228'> +1.3219302e+00 </wgt>
<wgt id='1229'> +1.2290856e+00 </wgt>
<wgt id='1230'> +1.2505234e+00 </wgt>
<wgt id='1231'> +1.2935345e+00 </wgt>
<wgt id='1232'> +1.2202508e+00 </wgt>
<wgt id='1233'> +1.2796523e+00 </wgt>
<wgt id='1234'> +1.3109406e+00 </wgt>
<wgt id='1235'> +1.1500277e+00 </wgt>
<wgt id='1236'> +1.2926007e+00 </wgt>
<wgt id='1237'> +1.2486580e+00 </wgt>
<wgt id='1238'> +1.2257387e+00 </wgt>
<wgt id='1239'> +1.2741783e+00 </wgt>
<wgt id='1240'> +1.2807981e+00 </wgt>
<wgt id='1241'> +1.2656958e+00 </wgt>
<wgt id='1242'> +1.2553313e+00 </wgt>
<wgt id='1243'> +1.2664013e+00 </wgt>
<wgt id='1244'> +1.2656361e+00 </wgt>
<wgt id='1245'> +1.2833988e+00 </wgt>
<wgt id='1246'> +1.2317652e+00 </wgt>
<wgt id='1247'> +1.2890811e+00 </wgt>
<wgt id='1248'> +1.3016246e+00 </wgt>
<wgt id='1249'> +1.2639163e+00 </wgt>
<wgt id='1250'> +1.3610207e+00 </wgt>
<wgt id='1251'> +1.3369385e+00 </wgt>
<wgt id='1252'> +1.3438686e+00 </wgt>
<wgt id='1253'> +1.3670869e+00 </wgt>
<wgt id='1254'> +1.4430080e+00 </wgt>
<wgt id='1255'> +1.5612425e+00 </wgt>
<wgt id='1256'> +1.5757483e+00 </wgt>
<wgt id='1257'> +1.5529499e+00 </wgt>
<wgt id='1258'> +1.5594266e+00 </wgt>
<wgt id='1259'> +1.5621293e+00 </wgt>
<wgt id='1260'> +1.5660039e+00 </wgt>
<wgt id='1261'> +1.5549263e+00 </wgt>
<wgt id='1262'> +1.5646913e+00 </wgt>
<wgt id='1263'> +1.5589979e+00 </wgt>
<wgt id='1264'> +1.5601042e+00 </wgt>
<wgt id='1265'> +1.5620129e+00 </wgt>
<wgt id='1266'> +1.5606905e+00 </wgt>
<wgt id='1267'> +1.5618299e+00 </wgt>
<wgt id='1268'> +1.5673521e+00 </wgt>
<wgt id='1269'> +1.5548379e+00 </wgt>
<wgt id='1270'> +1.5545273e+00 </wgt>
<wgt id='1271'> +1.5673879e+00 </wgt>
<wgt id='1272'> +1.5676347e+00 </wgt>
<wgt id='1273'> +1.5563868e+00 </wgt>
<wgt id='1274'> +1.5579685e+00 </wgt>
<wgt id='1275'> +1.5654869e+00 </wgt>
<wgt id='1276'> +1.5584403e+00 </wgt>
<wgt id='1277'> +1.5643331e+00 </wgt>
<wgt id='1278'> +1.5546177e+00 </wgt>
<wgt id='1279'> +1.5668015e+00 </wgt>
<wgt id='1280'> +1.5643285e+00 </wgt>
<wgt id='1281'> +1.5531925e+00 </wgt>
<wgt id='1282'> +1.5730080e+00 </wgt>
<wgt id='1283'> +1.5485838e+00 </wgt>
<wgt id='1284'> +1.5582531e+00 </wgt>
<wgt id='1285'> +1.5648653e+00 </wgt>
<wgt id='1286'> +1.5729065e+00 </wgt>
<wgt id='1287'> +1.5603907e+00 </wgt>
<wgt id='1288'> +1.5608823e+00 </wgt>
<wgt id='1289'> +1.5614048e+00 </wgt>
<wgt id='1290'> +1.5630369e+00 </wgt>
<wgt id='1291'> +1.5606685e+00 </wgt>
<wgt id='1292'> +1.5677239e+00 </wgt>
<wgt id='1293'> +1.5517287e+00 </wgt>
<wgt id='1294'> +1.5502587e+00 </wgt>
<wgt id='1295'> +1.5655506e+00 </wgt>
<wgt id='1296'> +1.3814635e+00 </wgt>
<wgt id='1297'> +1.3849023e+00 </wgt>
<wgt id='1298'> +1.3785328e+00 </wgt>
<wgt id='1299'> +1.3744459e+00 </wgt>
<wgt id='1300'> +1.3891424e+00 </wgt>
<wgt id='1301'> +1.3773707e+00 </wgt>
<wgt id='1302'> +1.3873782e+00 </wgt>
<wgt id='1303'> +1.3806167e+00 </wgt>
<wgt id='1304'> +1.3818590e+00 </wgt>
<wgt id='1305'> +1.3833431e+00 </wgt>
<wgt id='1306'> +1.3786941e+00 </wgt>
<wgt id='1307'> +1.3912701e+00 </wgt>
<wgt id='1308'> +1.3753067e+00 </wgt>
<wgt id='1309'> +1.3829180e+00 </wgt>
<wgt id='1310'> +1.3792680e+00 </wgt>
<wgt id='1311'> +1.3833523e+00 </wgt>
<wgt id='1312'> +1.3805774e+00 </wgt>
<wgt id='1313'> +1.3831687e+00 </wgt>
<wgt id='1314'> +1.3785611e+00 </wgt>
<wgt id='1315'> +1.3764487e+00 </wgt>
<wgt id='1316'> +1.3861576e+00 </wgt>
<wgt id='1317'> +1.3721196e+00 </wgt>
<wgt id='1318'> +1.3984736e+00 </wgt>
<wgt id='1319'> +1.3865062e+00 </wgt>
<wgt id='1320'> +1.3789712e+00 </wgt>
<wgt id='1321'> +1.3784328e+00 </wgt>
<wgt id='1322'> +1.3830435e+00 </wgt>
<wgt id='1323'> +1.3868780e+00 </wgt>
<wgt id='1324'> +1.3757428e+00 </wgt>
<wgt id='1325'> +1.3814592e+00 </wgt>
<wgt id='1326'> +1.3819642e+00 </wgt>
<wgt id='1327'> +1.3837464e+00 </wgt>
<wgt id='1328'> +1.3805055e+00 </wgt>
<wgt id='1329'> +1.3822426e+00 </wgt>
<wgt id='1330'> +1.3808320e+00 </wgt>
<wgt id='1331'> +1.3856373e+00 </wgt>
<wgt id='1332'> +1.3819234e+00 </wgt>
<wgt id='1333'> +1.3881352e+00 </wgt>
<wgt id='1334'> +1.3712932e+00 </wgt>
<wgt id='1335'> +1.3852340e+00 </wgt>
<wgt id='1336'> +1.3806087e+00 </wgt>
<wgt id='1337'> +1.3814635e+00 </wgt>
<wgt id='1338'> +1.3822256e+00 </wgt>
<wgt id='1339'> +1.3818879e+00 </wgt>
<wgt id='1340'> +1.3816363e+00 </wgt>
<wgt id='1341'> +1.3812017e+00 </wgt>
<wgt id='1342'> +1.3810972e+00 </wgt>
<wgt id='1343'> +1.3808962e+00 </wgt>
<wgt id='1344'> +1.3569713e+00 </wgt>
<wgt id='1345'> +1.3623087e+00 </wgt>
<wgt id='1346'> +1.3517292e+00 </wgt>
<wgt id='1347'> +1.3693550e+00 </wgt>
<wgt id='1348'> +1.3478647e+00 </wgt>
<wgt id='1349'> +1.3550527e+00 </wgt>
<wgt id='1350'> +1.3585472e+00 </wgt>
<wgt id='1351'> +1.3571095e+00 </wgt>
<wgt id='1352'> +1.3568708e+00 </wgt>
<wgt id='1353'> +1.3612655e+00 </wgt>
<wgt id='1354'> +1.3540407e+00 </wgt>
<wgt id='1355'> +1.3535188e+00 </wgt>
<wgt id='1356'> +1.3596605e+00 </wgt>
<wgt id='1357'> +1.3608672e+00 </wgt>
<wgt id='1358'> +1.3545992e+00 </wgt>
<wgt id='1359'> +1.3557772e+00 </wgt>
<wgt id='1360'> +1.3595227e+00 </wgt>
<wgt id='1361'> +1.3645013e+00 </wgt>
<wgt id='1362'> +1.3514750e+00 </wgt>
<wgt id='1363'> +1.3634510e+00 </wgt>
<wgt id='1364'> +1.3491936e+00 </wgt>
<wgt id='1365'> +1.3584449e+00 </wgt>
<wgt id='1366'> +1.3568416e+00 </wgt>
<wgt id='1367'> +1.3522891e+00 </wgt>
<wgt id='1368'> +1.3595689e+00 </wgt>
<wgt id='1369'> +1.3517026e+00 </wgt>
<wgt id='1370'> +1.3621231e+00 </wgt>
<wgt id='1371'> +1.3548566e+00 </wgt>
<wgt id='1372'> +1.3604941e+00 </wgt>
<wgt id='1373'> +1.3592052e+00 </wgt>
<wgt id='1374'> +1.3559167e+00 </wgt>
<wgt id='1375'> +1.3611798e+00 </wgt>
<wgt id='1376'> +1.3557251e+00 </wgt>
<wgt id='1377'> +1.3572647e+00 </wgt>
<wgt id='1378'> +1.3563444e+00 </wgt>
<wgt id='1379'> +1.3598701e+00 </wgt>
<wgt id='1380'> +1.3594654e+00 </wgt>
<wgt id='1381'> +1.3529418e+00 </wgt>
<wgt id='1382'> +1.3547837e+00 </wgt>
<wgt id='1383'> +1.3564765e+00 </wgt>
<wgt id='1384'> +1.3609429e+00 </wgt>
<wgt id='1385'> +1.3569713e+00 </wgt>
<wgt id='1386'> +1.3575357e+00 </wgt>
<wgt id='1387'> +1.3572638e+00 </wgt>
<wgt id='1388'> +1.3571385e+00 </wgt>
<wgt id='1389'> +1.3567417e+00 </wgt>
<wgt id='1390'> +1.3566601e+00 </wgt>
<wgt id='1391'> +1.3566544e+00 </wgt>
<wgt id='1392'> +1.4407742e+00 </wgt>
<wgt id='1393'> +1.4409173e+00 </wgt>
<wgt id='1394'> +1.4406294e+00 </wgt>
<wgt id='1395'> +1.4415369e+00 </wgt>
<wgt id='1396'> +1.4403051e+00 </wgt>
<wgt id='1397'> +1.4464985e+00 </wgt>
<wgt id='1398'> +1.4352738e+00 </wgt>
<wgt id='1399'> +1.4505664e+00 </wgt>
<wgt id='1400'> +1.4287634e+00 </wgt>
<wgt id='1401'> +1.4340970e+00 </wgt>
<wgt id='1402'> +1.4490317e+00 </wgt>
<wgt id='1403'> +1.4385226e+00 </wgt>
<wgt id='1404'> +1.4453536e+00 </wgt>
<wgt id='1405'> +1.4395278e+00 </wgt>
<wgt id='1406'> +1.4426179e+00 </wgt>
<wgt id='1407'> +1.4385259e+00 </wgt>
<wgt id='1408'> +1.4423837e+00 </wgt>
<wgt id='1409'> +1.4389107e+00 </wgt>
<wgt id='1410'> +1.4428506e+00 </wgt>
<wgt id='1411'> +1.4412147e+00 </wgt>
<wgt id='1412'> +1.4405141e+00 </wgt>
<wgt id='1413'> +1.4486249e+00 </wgt>
<wgt id='1414'> +1.4324239e+00 </wgt>
<wgt id='1415'> +1.4476133e+00 </wgt>
<wgt id='1416'> +1.4332146e+00 </wgt>
<wgt id='1417'> +1.4404708e+00 </wgt>
<wgt id='1418'> +1.4410133e+00 </wgt>
<wgt id='1419'> +1.4433617e+00 </wgt>
<wgt id='1420'> +1.4389106e+00 </wgt>
<wgt id='1421'> +1.4465858e+00 </wgt>
<wgt id='1422'> +1.4341899e+00 </wgt>
<wgt id='1423'> +1.4469584e+00 </wgt>
<wgt id='1424'> +1.4363364e+00 </wgt>
<wgt id='1425'> +1.4413690e+00 </wgt>
<wgt id='1426'> +1.4400963e+00 </wgt>
<wgt id='1427'> +1.4388365e+00 </wgt>
<wgt id='1428'> +1.4440443e+00 </wgt>
<wgt id='1429'> +1.4400818e+00 </wgt>
<wgt id='1430'> +1.4415748e+00 </wgt>
<wgt id='1431'> +1.4409562e+00 </wgt>
<wgt id='1432'> +1.4404553e+00 </wgt>
<wgt id='1433'> +1.4349421e+00 </wgt>
<wgt id='1434'> +1.4466311e+00 </wgt>
<wgt id='1435'> +1.4403434e+00 </wgt>
<wgt id='1436'> +1.4433685e+00 </wgt>
<wgt id='1437'> +1.4406145e+00 </wgt>
<wgt id='1438'> +1.4416274e+00 </wgt>
<wgt id='1439'> +1.4449777e+00 </wgt>
<wgt id='1440'> +1.4306708e+00 </wgt>
<wgt id='1441'> +1.4440304e+00 </wgt>
<wgt id='1442'> +1.4396755e+00 </wgt>
<wgt id='1443'> +1.4412345e+00 </wgt>
<wgt id='1444'> +1.4414188e+00 </wgt>
<wgt id='1445'> +1.4410109e+00 </wgt>
<wgt id='1446'> +1.4420183e+00 </wgt>
<wgt id='1447'> +1.4406794e+00 </wgt>
<wgt id='1448'> +1.4473510e+00 </wgt>
<wgt id='1449'> +1.4354647e+00 </wgt>
<wgt id='1450'> +1.4507545e+00 </wgt>
<wgt id='1451'> +1.4306405e+00 </wgt>
<wgt id='1452'> +1.4348880e+00 </wgt>
<wgt id='1453'> +1.4473008e+00 </wgt>
<wgt id='1454'> +1.4386760e+00 </wgt>
<wgt id='1455'> +1.4468117e+00 </wgt>
<wgt id='1456'> +1.4397507e+00 </wgt>
<wgt id='1457'> +1.4438076e+00 </wgt>
<wgt id='1458'> +1.4391695e+00 </wgt>
<wgt id='1459'> +1.4423295e+00 </wgt>
<wgt id='1460'> +1.4392642e+00 </wgt>
<wgt id='1461'> +1.4433063e+00 </wgt>
<wgt id='1462'> +1.4422261e+00 </wgt>
<wgt id='1463'> +1.4403184e+00 </wgt>
<wgt id='1464'> +1.4481239e+00 </wgt>
<wgt id='1465'> +1.4320970e+00 </wgt>
<wgt id='1466'> +1.4498459e+00 </wgt>
<wgt id='1467'> +1.4344837e+00 </wgt>
<wgt id='1468'> +1.4388289e+00 </wgt>
<wgt id='1469'> +1.4437245e+00 </wgt>
<wgt id='1470'> +1.4435983e+00 </wgt>
<wgt id='1471'> +1.4396688e+00 </wgt>
<wgt id='1472'> +1.4459169e+00 </wgt>
<wgt id='1473'> +1.4356266e+00 </wgt>
<wgt id='1474'> +1.4457226e+00 </wgt>
<wgt id='1475'> +1.4363257e+00 </wgt>
<wgt id='1476'> +1.4413479e+00 </wgt>
<wgt id='1477'> +1.4410556e+00 </wgt>
<wgt id='1478'> +1.4395288e+00 </wgt>
<wgt id='1479'> +1.4442479e+00 </wgt>
<wgt id='1480'> +1.4405333e+00 </wgt>
<wgt id='1481'> +1.4421542e+00 </wgt>
<wgt id='1482'> +1.4411047e+00 </wgt>
<wgt id='1483'> +1.4411925e+00 </wgt>
<wgt id='1484'> +1.4350473e+00 </wgt>
<wgt id='1485'> +1.4472302e+00 </wgt>
<wgt id='1486'> +1.4415702e+00 </wgt>
<wgt id='1487'> +1.4432252e+00 </wgt>
<wgt id='1488'> +1.4407410e+00 </wgt>
<wgt id='1489'> +1.4425798e+00 </wgt>
<wgt id='1490'> +1.4465593e+00 </wgt>
<wgt id='1491'> +1.4304444e+00 </wgt>
<wgt id='1492'> +1.4458619e+00 </wgt>
<wgt id='1493'> +1.4393694e+00 </wgt>
<wgt id='1494'> +1.3754771e+00 </wgt>
<wgt id='1495'> +1.3772832e+00 </wgt>
<wgt id='1496'> +1.3771385e+00 </wgt>
<wgt id='1497'> +1.3766399e+00 </wgt>
<wgt id='1498'> +1.3736474e+00 </wgt>
<wgt id='1499'> +1.3751963e+00 </wgt>
<wgt id='1500'> +1.3866228e+00 </wgt>
<wgt id='1501'> +1.3843244e+00 </wgt>
<wgt id='1502'> +1.3821187e+00 </wgt>
<wgt id='1503'> +1.3797298e+00 </wgt>
<wgt id='1504'> +1.3775093e+00 </wgt>
<wgt id='1505'> +1.3732337e+00 </wgt>
<wgt id='1506'> +1.3710617e+00 </wgt>
<wgt id='1507'> +1.3690513e+00 </wgt>
<wgt id='1508'> +1.3751963e+00 </wgt>
<wgt id='1509'> +1.3763726e+00 </wgt>
<wgt id='1510'> +1.3757348e+00 </wgt>
<wgt id='1511'> +1.3747076e+00 </wgt>
<wgt id='1512'> +1.3742846e+00 </wgt>
<wgt id='1513'> +1.3586423e+00 </wgt>
<wgt id='1514'> +1.3581327e+00 </wgt>
<wgt id='1515'> +1.3592283e+00 </wgt>
<wgt id='1516'> +1.3610609e+00 </wgt>
<wgt id='1517'> +1.3561889e+00 </wgt>
<wgt id='1518'> +1.3608860e+00 </wgt>
<wgt id='1519'> +1.3577282e+00 </wgt>
<wgt id='1520'> +1.3707519e+00 </wgt>
<wgt id='1521'> +1.3465514e+00 </wgt>
<wgt id='1522'> +1.3552934e+00 </wgt>
<wgt id='1523'> +1.3619038e+00 </wgt>
<wgt id='1524'> +1.3684678e+00 </wgt>
<wgt id='1525'> +1.3543807e+00 </wgt>
<wgt id='1526'> +1.3595073e+00 </wgt>
<wgt id='1527'> +1.3574804e+00 </wgt>
<wgt id='1528'> +1.3554701e+00 </wgt>
<wgt id='1529'> +1.3620801e+00 </wgt>
<wgt id='1530'> +1.3630817e+00 </wgt>
<wgt id='1531'> +1.3560732e+00 </wgt>
<wgt id='1532'> +1.3553649e+00 </wgt>
<wgt id='1533'> +1.3630637e+00 </wgt>
<wgt id='1534'> +1.3508923e+00 </wgt>
<wgt id='1535'> +1.3640396e+00 </wgt>
<wgt id='1536'> +1.3566736e+00 </wgt>
<wgt id='1537'> +1.3604844e+00 </wgt>
<wgt id='1538'> +1.3565128e+00 </wgt>
<wgt id='1539'> +1.3630052e+00 </wgt>
<wgt id='1540'> +1.3614993e+00 </wgt>
<wgt id='1541'> +1.3558176e+00 </wgt>
<wgt id='1542'> +1.3548672e+00 </wgt>
<wgt id='1543'> +1.3695412e+00 </wgt>
<wgt id='1544'> +1.3596081e+00 </wgt>
<wgt id='1545'> +1.3559168e+00 </wgt>
<wgt id='1546'> +1.3555516e+00 </wgt>
<wgt id='1547'> +1.3636412e+00 </wgt>
<wgt id='1548'> +1.3625350e+00 </wgt>
<wgt id='1549'> +1.3560571e+00 </wgt>
<wgt id='1550'> +1.3586200e+00 </wgt>
<wgt id='1551'> +1.3584740e+00 </wgt>
<wgt id='1552'> +1.3589507e+00 </wgt>
<wgt id='1553'> +1.3582643e+00 </wgt>
<wgt id='1554'> +1.3598231e+00 </wgt>
<wgt id='1555'> +1.3547134e+00 </wgt>
<wgt id='1556'> +1.3587608e+00 </wgt>
<wgt id='1557'> +1.3614960e+00 </wgt>
<wgt id='1558'> +1.3502389e+00 </wgt>
<wgt id='1559'> +1.3627990e+00 </wgt>
<wgt id='1560'> +1.3616616e+00 </wgt>
<wgt id='1561'> +1.3570690e+00 </wgt>
<wgt id='1562'> +1.3523387e+00 </wgt>
<wgt id='1563'> +1.3617385e+00 </wgt>
<wgt id='1564'> +1.3586423e+00 </wgt>
<wgt id='1565'> +1.3599624e+00 </wgt>
<wgt id='1566'> +1.3521807e+00 </wgt>
<wgt id='1567'> +1.3563770e+00 </wgt>
<wgt id='1568'> +1.3661688e+00 </wgt>
<wgt id='1569'> +1.3641946e+00 </wgt>
<wgt id='1570'> +1.3621877e+00 </wgt>
<wgt id='1571'> +1.3602618e+00 </wgt>
<wgt id='1572'> +1.3581915e+00 </wgt>
<wgt id='1573'> +1.3544439e+00 </wgt>
<wgt id='1574'> +1.3520770e+00 </wgt>
<wgt id='1575'> +1.3502044e+00 </wgt>
<wgt id='1576'> +1.3563770e+00 </wgt>
<wgt id='1577'> +1.3577348e+00 </wgt>
<wgt id='1578'> +1.3569932e+00 </wgt>
<wgt id='1579'> +1.3557205e+00 </wgt>
<wgt id='1580'> +1.3551900e+00 </wgt>
<wgt id='1581'> +1.3757026e+00 </wgt>
<wgt id='1582'> +1.3748921e+00 </wgt>
<wgt id='1583'> +1.3811780e+00 </wgt>
<wgt id='1584'> +1.3697082e+00 </wgt>
<wgt id='1585'> +1.3786610e+00 </wgt>
<wgt id='1586'> +1.3719448e+00 </wgt>
<wgt id='1587'> +1.3513724e+00 </wgt>
<wgt id='1588'> +1.3764598e+00 </wgt>
<wgt id='1589'> +1.3765184e+00 </wgt>
<wgt id='1590'> +1.3723001e+00 </wgt>
<wgt id='1591'> +1.3732484e+00 </wgt>
<wgt id='1592'> +1.3829043e+00 </wgt>
<wgt id='1593'> +1.3790714e+00 </wgt>
<wgt id='1594'> +1.3731573e+00 </wgt>
<wgt id='1595'> +1.3759904e+00 </wgt>
<wgt id='1596'> +1.3842566e+00 </wgt>
<wgt id='1597'> +1.3792583e+00 </wgt>
<wgt id='1598'> +1.3814290e+00 </wgt>
<wgt id='1599'> +1.3761075e+00 </wgt>
<wgt id='1600'> +1.3799702e+00 </wgt>
<wgt id='1601'> +1.3743753e+00 </wgt>
<wgt id='1602'> +1.3742966e+00 </wgt>
<wgt id='1603'> +1.3747443e+00 </wgt>
<wgt id='1604'> +1.3770647e+00 </wgt>
<wgt id='1605'> +1.3775649e+00 </wgt>
<wgt id='1606'> +1.3754185e+00 </wgt>
<wgt id='1607'> +1.3790298e+00 </wgt>
<wgt id='1608'> +1.3733758e+00 </wgt>
<wgt id='1609'> +1.3743510e+00 </wgt>
<wgt id='1610'> +1.3745997e+00 </wgt>
<wgt id='1611'> +1.3799501e+00 </wgt>
<wgt id='1612'> +1.3420198e+00 </wgt>
<wgt id='1613'> +1.3386329e+00 </wgt>
<wgt id='1614'> +1.3472662e+00 </wgt>
<wgt id='1615'> +1.3469238e+00 </wgt>
<wgt id='1616'> +1.3411605e+00 </wgt>
<wgt id='1617'> +1.3415138e+00 </wgt>
<wgt id='1618'> +1.3428969e+00 </wgt>
<wgt id='1619'> +1.3356359e+00 </wgt>
<wgt id='1620'> +1.3418323e+00 </wgt>
<wgt id='1621'> +1.3449800e+00 </wgt>
<wgt id='1622'> +1.3446398e+00 </wgt>
<wgt id='1623'> +1.3414888e+00 </wgt>
<wgt id='1624'> +1.3412569e+00 </wgt>
<wgt id='1625'> +1.3450157e+00 </wgt>
<wgt id='1626'> +1.3490794e+00 </wgt>
<wgt id='1627'> +1.3398610e+00 </wgt>
<wgt id='1628'> +1.3423320e+00 </wgt>
<wgt id='1629'> +1.3434023e+00 </wgt>
<wgt id='1630'> +1.3445227e+00 </wgt>
<wgt id='1631'> +1.3430087e+00 </wgt>
<wgt id='1632'> +1.3445746e+00 </wgt>
<wgt id='1633'> +1.3385927e+00 </wgt>
<wgt id='1634'> +1.3462310e+00 </wgt>
<wgt id='1635'> +1.3404128e+00 </wgt>
<wgt id='1636'> +1.3441557e+00 </wgt>
<wgt id='1637'> +1.3458054e+00 </wgt>
<wgt id='1638'> +1.3410892e+00 </wgt>
<wgt id='1639'> +1.3454088e+00 </wgt>
<wgt id='1640'> +1.3428155e+00 </wgt>
<wgt id='1641'> +1.3290099e+00 </wgt>
<wgt id='1642'> +1.3392185e+00 </wgt>
<wgt id='1643'> +1.3401372e+00 </wgt>
<wgt id='1644'> +1.3391995e+00 </wgt>
<wgt id='1645'> +1.3427905e+00 </wgt>
<wgt id='1646'> +1.3422964e+00 </wgt>
<wgt id='1647'> +1.3403986e+00 </wgt>
<wgt id='1648'> +1.3412726e+00 </wgt>
<wgt id='1649'> +1.3438248e+00 </wgt>
<wgt id='1650'> +1.3395558e+00 </wgt>
<wgt id='1651'> +1.3422570e+00 </wgt>
<wgt id='1652'> +1.3434049e+00 </wgt>
<wgt id='1653'> +1.3411369e+00 </wgt>
<wgt id='1654'> +1.3394951e+00 </wgt>
<wgt id='1655'> +1.3444710e+00 </wgt>
<wgt id='1656'> +1.3413103e+00 </wgt>
<wgt id='1657'> +1.3441948e+00 </wgt>
<wgt id='1658'> +1.3439167e+00 </wgt>
<wgt id='1659'> +1.3458342e+00 </wgt>
<wgt id='1660'> +1.3457771e+00 </wgt>
<wgt id='1661'> +1.3438687e+00 </wgt>
<wgt id='1662'> +1.3518180e+00 </wgt>
<wgt id='1663'> +1.3502574e+00 </wgt>
<wgt id='1664'> +1.3412754e+00 </wgt>
<wgt id='1665'> +1.3440898e+00 </wgt>
<wgt id='1666'> +1.3481819e+00 </wgt>
<wgt id='1667'> +1.3435418e+00 </wgt>
<wgt id='1668'> +1.3422275e+00 </wgt>
<wgt id='1669'> +1.3442005e+00 </wgt>
<wgt id='1670'> +1.3532569e+00 </wgt>
<wgt id='1671'> +1.3489403e+00 </wgt>
<wgt id='1672'> +1.3427225e+00 </wgt>
<wgt id='1673'> +1.3456522e+00 </wgt>
<wgt id='1674'> +1.3413651e+00 </wgt>
<wgt id='1675'> +1.3441672e+00 </wgt>
<wgt id='1676'> +1.3465560e+00 </wgt>
<wgt id='1677'> +1.3446071e+00 </wgt>
<wgt id='1678'> +1.3400313e+00 </wgt>
<wgt id='1679'> +1.3447124e+00 </wgt>
<wgt id='1680'> +1.3395516e+00 </wgt>
<wgt id='1681'> +1.3433830e+00 </wgt>
<wgt id='1682'> +1.3390307e+00 </wgt>
<wgt id='1683'> +1.3438353e+00 </wgt>
<wgt id='1684'> +1.3395576e+00 </wgt>
<wgt id='1685'> +1.3393420e+00 </wgt>
<wgt id='1686'> +1.3427327e+00 </wgt>
<wgt id='1687'> +1.3415347e+00 </wgt>
<wgt id='1688'> +1.3447203e+00 </wgt>
<wgt id='1689'> +1.3410273e+00 </wgt>
<wgt id='1690'> +1.3454986e+00 </wgt>
<wgt id='1691'> +1.3445336e+00 </wgt>
<wgt id='1692'> +1.3435977e+00 </wgt>
<wgt id='1693'> +1.3381036e+00 </wgt>
<wgt id='1694'> +1.3409269e+00 </wgt>
<wgt id='1695'> +1.3444393e+00 </wgt>
<wgt id='1696'> +1.3448284e+00 </wgt>
<wgt id='1697'> +1.3421658e+00 </wgt>
<wgt id='1698'> +1.3394375e+00 </wgt>
<wgt id='1699'> +1.3451441e+00 </wgt>
<wgt id='1700'> +1.3378625e+00 </wgt>
<wgt id='1701'> +1.3436607e+00 </wgt>
<wgt id='1702'> +1.3412073e+00 </wgt>
<wgt id='1703'> +1.3430860e+00 </wgt>
<wgt id='1704'> +1.3405814e+00 </wgt>
<wgt id='1705'> +1.3447998e+00 </wgt>
<wgt id='1706'> +1.3442370e+00 </wgt>
<wgt id='1707'> +1.3410823e+00 </wgt>
<wgt id='1708'> +1.3425777e+00 </wgt>
<wgt id='1709'> +1.3450857e+00 </wgt>
<wgt id='1710'> +1.3419105e+00 </wgt>
<wgt id='1711'> +1.3429782e+00 </wgt>
<wgt id='1712'> +1.3427982e+00 </wgt>
<wgt id='1713'> +1.3253058e+00 </wgt>
<wgt id='1714'> +1.3545564e+00 </wgt>
<wgt id='1715'> +1.2928293e+00 </wgt>
<wgt id='1716'> +1.2722083e+00 </wgt>
<wgt id='1717'> +1.2892858e+00 </wgt>
<wgt id='1718'> +1.2181365e+00 </wgt>
<wgt id='1719'> +1.2472666e+00 </wgt>
<wgt id='1720'> +1.3251217e+00 </wgt>
<wgt id='1721'> +1.2333542e+00 </wgt>
<wgt id='1722'> +1.2783684e+00 </wgt>
<wgt id='1723'> +1.3074540e+00 </wgt>
<wgt id='1724'> +1.3484576e+00 </wgt>
<wgt id='1725'> +1.3216749e+00 </wgt>
<wgt id='1726'> +1.3315619e+00 </wgt>
<wgt id='1727'> +1.2866668e+00 </wgt>
<wgt id='1728'> +1.3073428e+00 </wgt>
<wgt id='1729'> +1.2985336e+00 </wgt>
<wgt id='1730'> +1.3186749e+00 </wgt>
<wgt id='1731'> +1.2521259e+00 </wgt>
<wgt id='1732'> +1.3095477e+00 </wgt>
<wgt id='1733'> +1.3357091e+00 </wgt>
<wgt id='1734'> +1.3169013e+00 </wgt>
<wgt id='1735'> +1.2716668e+00 </wgt>
<wgt id='1736'> +1.2767342e+00 </wgt>
<wgt id='1737'> +1.2934524e+00 </wgt>
<wgt id='1738'> +1.2940786e+00 </wgt>
<wgt id='1739'> +1.2372952e+00 </wgt>
<wgt id='1740'> +1.2725458e+00 </wgt>
<wgt id='1741'> +1.3136729e+00 </wgt>
<wgt id='1742'> +1.3411744e+00 </wgt>
<wgt id='1743'> +1.3009645e+00 </wgt>
<wgt id='1744'> +1.3014926e+00 </wgt>
<wgt id='1745'> +1.2531777e+00 </wgt>
<wgt id='1746'> +1.2066804e+00 </wgt>
<wgt id='1747'> +1.2755344e+00 </wgt>
<wgt id='1748'> +1.2898167e+00 </wgt>
<wgt id='1749'> +1.3139182e+00 </wgt>
<wgt id='1750'> +1.3072223e+00 </wgt>
<wgt id='1751'> +1.2855437e+00 </wgt>
<wgt id='1752'> +1.2261126e+00 </wgt>
<wgt id='1753'> +1.2778448e+00 </wgt>
<wgt id='1754'> +1.3405683e+00 </wgt>
<wgt id='1755'> +1.2932640e+00 </wgt>
<wgt id='1756'> +1.2878078e+00 </wgt>
<wgt id='1757'> +1.2625609e+00 </wgt>
<wgt id='1758'> +1.2468604e+00 </wgt>
<wgt id='1759'> +1.2670059e+00 </wgt>
<wgt id='1760'> +1.2468687e+00 </wgt>
<wgt id='1761'> +1.2896493e+00 </wgt>
<wgt id='1762'> +1.2866668e+00 </wgt>
<wgt id='1763'> +1.2824064e+00 </wgt>
<wgt id='1764'> +1.3349502e+00 </wgt>
<wgt id='1765'> +1.3065584e+00 </wgt>
<wgt id='1766'> +1.3805695e+00 </wgt>
<wgt id='1767'> +1.3160596e+00 </wgt>
<wgt id='1768'> +1.2755468e+00 </wgt>
<wgt id='1769'> +1.2833621e+00 </wgt>
<wgt id='1770'> +1.2963552e+00 </wgt>
<wgt id='1771'> +1.2890047e+00 </wgt>
<wgt id='1772'> +1.3214392e+00 </wgt>
<wgt id='1773'> +1.2934063e+00 </wgt>
<wgt id='1774'> +1.3145652e+00 </wgt>
<wgt id='1775'> +1.3314563e+00 </wgt>
<wgt id='1776'> +1.3172186e+00 </wgt>
<wgt id='1777'> +1.3000462e+00 </wgt>
<wgt id='1778'> +1.2795011e+00 </wgt>
<wgt id='1779'> +1.2769705e+00 </wgt>
<wgt id='1780'> +1.3164060e+00 </wgt>
<wgt id='1781'> +1.2797030e+00 </wgt>
<wgt id='1782'> +1.3242788e+00 </wgt>
<wgt id='1783'> +1.2399307e+00 </wgt>
<wgt id='1784'> +1.3143400e+00 </wgt>
<wgt id='1785'> +1.2712961e+00 </wgt>
<wgt id='1786'> +1.3231321e+00 </wgt>
<wgt id='1787'> +1.3215380e+00 </wgt>
<wgt id='1788'> +1.2887773e+00 </wgt>
<wgt id='1789'> +1.2993588e+00 </wgt>
<wgt id='1790'> +1.2679880e+00 </wgt>
<wgt id='1791'> +1.2372967e+00 </wgt>
<wgt id='1792'> +1.2761895e+00 </wgt>
<wgt id='1793'> +1.3671165e+00 </wgt>
<wgt id='1794'> +1.3214889e+00 </wgt>
<wgt id='1795'> +1.3140993e+00 </wgt>
<wgt id='1796'> +1.2707870e+00 </wgt>
<wgt id='1797'> +1.2401871e+00 </wgt>
<wgt id='1798'> +1.3820852e+00 </wgt>
<wgt id='1799'> +1.3436672e+00 </wgt>
<wgt id='1800'> +1.3055565e+00 </wgt>
<wgt id='1801'> +1.2882614e+00 </wgt>
<wgt id='1802'> +1.2991021e+00 </wgt>
<wgt id='1803'> +1.2924324e+00 </wgt>
<wgt id='1804'> +1.2623506e+00 </wgt>
<wgt id='1805'> +1.2955650e+00 </wgt>
<wgt id='1806'> +1.3325354e+00 </wgt>
<wgt id='1807'> +1.2374207e+00 </wgt>
<wgt id='1808'> +1.3141860e+00 </wgt>
<wgt id='1809'> +1.2876668e+00 </wgt>
<wgt id='1810'> +1.2817980e+00 </wgt>
<wgt id='1811'> +1.3060855e+00 </wgt>
<wgt id='1812'> +1.2577805e+00 </wgt>
<wgt id='1813'> +1.3235744e+00 </wgt>
<wgt id='1814'> +1.2407197e+00 </wgt>
<wgt id='1815'> +1.3009020e+00 </wgt>
<wgt id='1816'> +1.3889968e+00 </wgt>
<wgt id='1817'> +1.4029969e+00 </wgt>
<wgt id='1818'> +1.3396641e+00 </wgt>
<wgt id='1819'> +1.3849285e+00 </wgt>
<wgt id='1820'> +1.4093341e+00 </wgt>
<wgt id='1821'> +1.4415353e+00 </wgt>
<wgt id='1822'> +1.3889622e+00 </wgt>
<wgt id='1823'> +1.3975130e+00 </wgt>
<wgt id='1824'> +1.3434114e+00 </wgt>
<wgt id='1825'> +1.4046885e+00 </wgt>
<wgt id='1826'> +1.3887980e+00 </wgt>
<wgt id='1827'> +1.3572947e+00 </wgt>
<wgt id='1828'> +1.4188038e+00 </wgt>
<wgt id='1829'> +1.3812748e+00 </wgt>
<wgt id='1830'> +1.3493765e+00 </wgt>
<wgt id='1831'> +1.3670781e+00 </wgt>
<wgt id='1832'> +1.4093331e+00 </wgt>
<wgt id='1833'> +1.3715315e+00 </wgt>
<wgt id='1834'> +1.3958121e+00 </wgt>
<wgt id='1835'> +1.3966619e+00 </wgt>
<wgt id='1836'> +1.4039626e+00 </wgt>
<wgt id='1837'> +1.4067471e+00 </wgt>
<wgt id='1838'> +1.3770308e+00 </wgt>
<wgt id='1839'> +1.4573712e+00 </wgt>
<wgt id='1840'> +1.3846002e+00 </wgt>
<wgt id='1841'> +1.3594844e+00 </wgt>
<wgt id='1842'> +1.4097853e+00 </wgt>
<wgt id='1843'> +1.3818515e+00 </wgt>
<wgt id='1844'> +1.3796825e+00 </wgt>
<wgt id='1845'> +1.3717530e+00 </wgt>
<wgt id='1846'> +1.4043758e+00 </wgt>
<wgt id='1847'> +1.3820153e+00 </wgt>
<wgt id='1848'> +1.3710342e+00 </wgt>
<wgt id='1849'> +1.3759035e+00 </wgt>
<wgt id='1850'> +1.4228704e+00 </wgt>
<wgt id='1851'> +1.4047684e+00 </wgt>
<wgt id='1852'> +1.3960655e+00 </wgt>
<wgt id='1853'> +1.3452587e+00 </wgt>
<wgt id='1854'> +1.4114129e+00 </wgt>
<wgt id='1855'> +1.4211572e+00 </wgt>
<wgt id='1856'> +1.3898845e+00 </wgt>
<wgt id='1857'> +1.4386526e+00 </wgt>
<wgt id='1858'> +1.3811858e+00 </wgt>
<wgt id='1859'> +1.4082553e+00 </wgt>
<wgt id='1860'> +1.3959662e+00 </wgt>
<wgt id='1861'> +1.3960295e+00 </wgt>
<wgt id='1862'> +1.4427642e+00 </wgt>
<wgt id='1863'> +1.3557442e+00 </wgt>
<wgt id='1864'> +1.3870127e+00 </wgt>
<wgt id='1865'> +1.3372092e+00 </wgt>
<wgt id='1866'> +1.3720039e+00 </wgt>
<wgt id='1867'> +1.3954832e+00 </wgt>
<wgt id='1868'> +1.3781067e+00 </wgt>
<wgt id='1869'> +1.4046505e+00 </wgt>
<wgt id='1870'> +1.4020397e+00 </wgt>
<wgt id='1871'> +1.3956791e+00 </wgt>
<wgt id='1872'> +1.3823875e+00 </wgt>
<wgt id='1873'> +1.4289136e+00 </wgt>
<wgt id='1874'> +1.3660481e+00 </wgt>
<wgt id='1875'> +1.3321876e+00 </wgt>
<wgt id='1876'> +1.3697556e+00 </wgt>
<wgt id='1877'> +1.3672358e+00 </wgt>
<wgt id='1878'> +1.3355336e+00 </wgt>
<wgt id='1879'> +1.4350929e+00 </wgt>
<wgt id='1880'> +1.3333965e+00 </wgt>
<wgt id='1881'> +1.4265750e+00 </wgt>
<wgt id='1882'> +1.3956377e+00 </wgt>
<wgt id='1883'> +1.4754582e+00 </wgt>
<wgt id='1884'> +1.3861923e+00 </wgt>
<wgt id='1885'> +1.4028589e+00 </wgt>
<wgt id='1886'> +1.3534569e+00 </wgt>
<wgt id='1887'> +1.4400922e+00 </wgt>
<wgt id='1888'> +1.3871837e+00 </wgt>
<wgt id='1889'> +1.4156459e+00 </wgt>
<wgt id='1890'> +1.4240123e+00 </wgt>
<wgt id='1891'> +1.3350821e+00 </wgt>
<wgt id='1892'> +1.3582965e+00 </wgt>
<wgt id='1893'> +1.3862487e+00 </wgt>
<wgt id='1894'> +1.4123121e+00 </wgt>
<wgt id='1895'> +1.4054689e+00 </wgt>
<wgt id='1896'> +1.3801164e+00 </wgt>
<wgt id='1897'> +1.3852957e+00 </wgt>
<wgt id='1898'> +1.3671476e+00 </wgt>
<wgt id='1899'> +1.3842703e+00 </wgt>
<wgt id='1900'> +1.4218682e+00 </wgt>
<wgt id='1901'> +1.3259451e+00 </wgt>
<wgt id='1902'> +1.3722745e+00 </wgt>
<wgt id='1903'> +1.3578965e+00 </wgt>
<wgt id='1904'> +1.3861415e+00 </wgt>
<wgt id='1905'> +1.4001135e+00 </wgt>
<wgt id='1906'> +1.3573480e+00 </wgt>
<wgt id='1907'> +1.4009643e+00 </wgt>
<wgt id='1908'> +1.4169524e+00 </wgt>
<wgt id='1909'> +1.3980992e+00 </wgt>
<wgt id='1910'> +1.4195206e+00 </wgt>
<wgt id='1911'> +1.2916121e+00 </wgt>
<wgt id='1912'> +1.4065947e+00 </wgt>
<wgt id='1913'> +1.3904512e+00 </wgt>
<wgt id='1914'> +1.4267178e+00 </wgt>
<wgt id='1915'> +1.3994272e+00 </wgt>
<wgt id='1916'> +1.3551951e+00 </wgt>
<wgt id='1917'> +1.5864817e+00 </wgt>
<wgt id='1918'> +1.6385850e+00 </wgt>
<wgt id='1919'> +1.3889968e+00 </wgt>
<wgt id='1920'> +1.4029969e+00 </wgt>
<wgt id='1921'> +1.3396641e+00 </wgt>
<wgt id='1922'> +1.3849285e+00 </wgt>
<wgt id='1923'> +1.4093341e+00 </wgt>
<wgt id='1924'> +1.4415353e+00 </wgt>
<wgt id='1925'> +1.3889622e+00 </wgt>
<wgt id='1926'> +1.3975130e+00 </wgt>
<wgt id='1927'> +1.3434114e+00 </wgt>
<wgt id='1928'> +1.4046885e+00 </wgt>
<wgt id='1929'> +1.3887980e+00 </wgt>
<wgt id='1930'> +1.3572947e+00 </wgt>
<wgt id='1931'> +1.4188038e+00 </wgt>
<wgt id='1932'> +1.3812748e+00 </wgt>
<wgt id='1933'> +1.3493765e+00 </wgt>
<wgt id='1934'> +1.3670781e+00 </wgt>
<wgt id='1935'> +1.4093331e+00 </wgt>
<wgt id='1936'> +1.3715315e+00 </wgt>
<wgt id='1937'> +1.3958121e+00 </wgt>
<wgt id='1938'> +1.3966619e+00 </wgt>
<wgt id='1939'> +1.4039626e+00 </wgt>
<wgt id='1940'> +1.4067471e+00 </wgt>
<wgt id='1941'> +1.3770308e+00 </wgt>
<wgt id='1942'> +1.4573712e+00 </wgt>
<wgt id='1943'> +1.3846002e+00 </wgt>
<wgt id='1944'> +1.3594844e+00 </wgt>
<wgt id='1945'> +1.4097853e+00 </wgt>
<wgt id='1946'> +1.3818515e+00 </wgt>
<wgt id='1947'> +1.3796825e+00 </wgt>
<wgt id='1948'> +1.3717530e+00 </wgt>
<wgt id='1949'> +1.4043758e+00 </wgt>
<wgt id='1950'> +1.3820153e+00 </wgt>
<wgt id='1951'> +1.3710342e+00 </wgt>
<wgt id='1952'> +1.3759035e+00 </wgt>
<wgt id='1953'> +1.4228704e+00 </wgt>
<wgt id='1954'> +1.4047684e+00 </wgt>
<wgt id='1955'> +1.3960655e+00 </wgt>
<wgt id='1956'> +1.3452587e+00 </wgt>
<wgt id='1957'> +1.4114129e+00 </wgt>
<wgt id='1958'> +1.4211572e+00 </wgt>
<wgt id='1959'> +1.3898845e+00 </wgt>
<wgt id='1960'> +1.4386526e+00 </wgt>
<wgt id='1961'> +1.3811858e+00 </wgt>
<wgt id='1962'> +1.4082553e+00 </wgt>
<wgt id='1963'> +1.3959662e+00 </wgt>
<wgt id='1964'> +1.3960295e+00 </wgt>
<wgt id='1965'> +1.4427642e+00 </wgt>
<wgt id='1966'> +1.3557442e+00 </wgt>
<wgt id='1967'> +1.3870127e+00 </wgt>
<wgt id='1968'> +1.3372092e+00 </wgt>
<wgt id='1969'> +1.3720039e+00 </wgt>
<wgt id='1970'> +1.3954832e+00 </wgt>
<wgt id='1971'> +1.3781067e+00 </wgt>
<wgt id='1972'> +1.4046505e+00 </wgt>
<wgt id='1973'> +1.4020397e+00 </wgt>
<wgt id='1974'> +1.3956791e+00 </wgt>
<wgt id='1975'> +1.3823875e+00 </wgt>
<wgt id='1976'> +1.4289136e+00 </wgt>
<wgt id='1977'> +1.3660481e+00 </wgt>
<wgt id='1978'> +1.3321876e+00 </wgt>
<wgt id='1979'> +1.3697556e+00 </wgt>
<wgt id='1980'> +1.3672358e+00 </wgt>
<wgt id='1981'> +1.3355336e+00 </wgt>
<wgt id='1982'> +1.4350929e+00 </wgt>
<wgt id='1983'> +1.3333965e+00 </wgt>
<wgt id='1984'> +1.4265750e+00 </wgt>
<wgt id='1985'> +1.3956377e+00 </wgt>
<wgt id='1986'> +1.4754582e+00 </wgt>
<wgt id='1987'> +1.3861923e+00 </wgt>
<wgt id='1988'> +1.4028589e+00 </wgt>
<wgt id='1989'> +1.3534569e+00 </wgt>
<wgt id='1990'> +1.4400922e+00 </wgt>
<wgt id='1991'> +1.3871837e+00 </wgt>
<wgt id='1992'> +1.4156459e+00 </wgt>
<wgt id='1993'> +1.4240123e+00 </wgt>
<wgt id='1994'> +1.3350821e+00 </wgt>
<wgt id='1995'> +1.3582965e+00 </wgt>
<wgt id='1996'> +1.3862487e+00 </wgt>
<wgt id='1997'> +1.4123121e+00 </wgt>
<wgt id='1998'> +1.4054689e+00 </wgt>
<wgt id='1999'> +1.3801164e+00 </wgt>
<wgt id='2000'> +1.3852957e+00 </wgt>
<wgt id='2001'> +1.3671476e+00 </wgt>
<wgt id='2002'> +1.3842703e+00 </wgt>
<wgt id='2003'> +1.4218682e+00 </wgt>
<wgt id='2004'> +1.3259451e+00 </wgt>
<wgt id='2005'> +1.3722745e+00 </wgt>
<wgt id='2006'> +1.3578965e+00 </wgt>
<wgt id='2007'> +1.3861415e+00 </wgt>
<wgt id='2008'> +1.4001135e+00 </wgt>
<wgt id='2009'> +1.3573480e+00 </wgt>
<wgt id='2010'> +1.4009643e+00 </wgt>
<wgt id='2011'> +1.4169524e+00 </wgt>
<wgt id='2012'> +1.3980992e+00 </wgt>
<wgt id='2013'> +1.4195206e+00 </wgt>
<wgt id='2014'> +1.2916121e+00 </wgt>
<wgt id='2015'> +1.4065947e+00 </wgt>
<wgt id='2016'> +1.3904512e+00 </wgt>
<wgt id='2017'> +1.4267178e+00 </wgt>
<wgt id='2018'> +1.3994272e+00 </wgt>
<wgt id='2019'> +1.3551951e+00 </wgt>
<wgt id='2020'> +1.3934133e+00 </wgt>
<wgt id='2021'> +1.3905982e+00 </wgt>
<wgt id='2022'> +1.3684932e+00 </wgt>
</rwgt>
</event>
<event>
13      1 +1.3581722e+00 1.30336600e+02 7.81860800e-03 1.07397500e-01
       21 -1    0    0  502  503 +0.0000000000e+00 +0.0000000000e+00 +1.0196240065e+03 1.0196240065e+03 0.0000000000e+00 0.0000e+00 -1.0000e+00
        2 -1    0    0  501    0 +0.0000000000e+00 +0.0000000000e+00 -1.7023378675e+03 1.7023378675e+03 2.5500000000e-03 0.0000e+00 -1.0000e+00
  8000001  2    1    2  502    0 -7.1531761144e+01 -1.2420768095e+02 +5.8866298987e+02 8.5268259454e+02 5.9999929212e+02 0.0000e+00 0.0000e+00
        1  1    1    2  501    0 +4.9823574553e+01 +1.0752163264e+02 -1.5674413964e+03 1.5719146991e+03 5.0400000000e-03 0.0000e+00 -1.0000e+00
       -5  1    1    2    0  503 +2.1708186591e+01 +1.6686048300e+01 +2.9606454558e+02 2.9736458031e+02 4.6700000000e+00 0.0000e+00 1.0000e+00
        6  2    3    3  502    0 +1.4821359464e+02 +1.3307222835e+02 +2.9570613636e+02 3.9583090605e+02 1.7194330318e+02 0.0000e+00 0.0000e+00
        5  1    6    6  502    0 +8.1115994918e+01 -1.1387626456e+01 +1.0974349079e+02 1.3702162362e+02 4.6700000000e+00 0.0000e+00 -1.0000e+00
       24  2    6    6    0    0 +6.7097599726e+01 +1.4445985481e+02 +1.8596264557e+02 2.5880928243e+02 8.3841526611e+01 0.0000e+00 0.0000e+00
        2  1    8    8  504    0 +6.8623357851e+01 +1.4190181751e+02 +1.3435237906e+02 2.0711314014e+02 2.5500000000e-03 0.0000e+00 -1.0000e+00
       -1  1    8    8    0  504 -1.5257581252e+00 +2.5580373035e+00 +5.1610266513e+01 5.1696142290e+01 5.0400000000e-03 0.0000e+00 1.0000e+00
       23  2    3    3    0    0 -2.1974535579e+02 -2.5727990930e+02 +2.9295685351e+02 4.5685168849e+02 9.1699368242e+01 0.0000e+00 0.0000e+00
        3  1   11   11  505    0 -1.0109333419e+01 -2.2862866011e+01 -2.7876957208e+00 2.5153343969e+01 1.0100000000e-01 0.0000e+00 -1.0000e+00
       -3  1   11   11    0  505 -2.0963602237e+02 -2.3441704329e+02 +2.9574454924e+02 4.3169834452e+02 1.0100000000e-01 0.0000e+00 1.0000e+00
<mgrwt>
<rscale>  1 0.12431912e+03</rscale>
<asrwt>0</asrwt>
<pdfrwt beam="1">  1       21 0.15686523e+00 0.13033659e+03</pdfrwt>
<pdfrwt beam="2">  1        2 0.26189813e+00 0.11857947e+03</pdfrwt>
<totfact> 0.39548826e+01</totfact>
</mgrwt>
<rwgt>
<wgt id='1001'> +1.3581722e+00 </wgt>
<wgt id='1002'> +7.6573399e-01 </wgt>
<wgt id='1003'> +7.6558849e-01 </wgt>
<wgt id='1004'> +9.4511734e-01 </wgt>
<wgt id='1005'> +5.3925962e-01 </wgt>
<wgt id='1006'> +1.2301923e+00 </wgt>
<wgt id='1007'> +7.0809816e-01 </wgt>
<wgt id='1008'> +7.0796787e-01 </wgt>
<wgt id='1009'> +8.6791578e-01 </wgt>
<wgt id='1010'> +5.0381813e-01 </wgt>
<wgt id='1011'> +1.5169434e+00 </wgt>
<wgt id='1012'> +8.3385242e-01 </wgt>
<wgt id='1013'> +8.3368799e-01 </wgt>
<wgt id='1014'> +1.0378487e+00 </wgt>
<wgt id='1015'> +5.8018328e-01 </wgt>
<wgt id='1016'> +1.1787000e+00 </wgt>
<wgt id='1017'> +6.8154079e-01 </wgt>
<wgt id='1018'> +6.8141575e-01 </wgt>
<wgt id='1019'> +8.3368799e-01 </wgt>
<wgt id='1020'> +4.8638587e-01 </wgt>
<wgt id='1021'> +1.0676317e+00 </wgt>
<wgt id='1022'> +6.3024207e-01 </wgt>
<wgt id='1023'> +6.3013024e-01 </wgt>
<wgt id='1024'> +7.6558849e-01 </wgt>
<wgt id='1025'> +4.5441938e-01 </wgt>
<wgt id='1026'> +1.3164908e+00 </wgt>
<wgt id='1027'> +7.4216953e-01 </wgt>
<wgt id='1028'> +7.4202804e-01 </wgt>
<wgt id='1029'> +9.1548632e-01 </wgt>
<wgt id='1030'> +5.2329702e-01 </wgt>
<wgt id='1031'> +1.5857893e+00 </wgt>
<wgt id='1032'> +8.6808945e-01 </wgt>
<wgt id='1033'> +8.6791578e-01 </wgt>
<wgt id='1034'> +1.0823082e+00 </wgt>
<wgt id='1035'> +6.0191647e-01 </wgt>
<wgt id='1036'> +1.4363611e+00 </wgt>
<wgt id='1037'> +8.0274945e-01 </wgt>
<wgt id='1038'> +8.0259369e-01 </wgt>
<wgt id='1039'> +9.9390026e-01 </wgt>
<wgt id='1040'> +5.6235701e-01 </wgt>
<wgt id='1041'> +1.7711691e+00 </wgt>
<wgt id='1042'> +9.4531325e-01 </wgt>
<wgt id='1043'> +9.4511734e-01 </wgt>
<wgt id='1044'> +1.1885002e+00 </wgt>
<wgt id='1045'> +6.4759507e-01 </wgt>
<wgt id='1046'> +1.3581722e+00 </wgt>
<wgt id='1047'> +1.3581722e+00 </wgt>
<wgt id='1048'> +1.3581722e+00 </wgt>
<wgt id='1049'> +1.3548088e+00 </wgt>
<wgt id='1050'> +1.3580769e+00 </wgt>
<wgt id='1051'> +1.3589501e+00 </wgt>
<wgt id='1052'> +1.3585758e+00 </wgt>
<wgt id='1053'> +1.3570812e+00 </wgt>
<wgt id='1054'> +1.3576755e+00 </wgt>
<wgt id='1055'> +1.3540744e+00 </wgt>
<wgt id='1056'> +1.3527510e+00 </wgt>
<wgt id='1057'> +1.3609464e+00 </wgt>
<wgt id='1058'> +1.3572938e+00 </wgt>
<wgt id='1059'> +1.3626027e+00 </wgt>
<wgt id='1060'> +1.3590755e+00 </wgt>
<wgt id='1061'> +1.3591464e+00 </wgt>
<wgt id='1062'> +1.3602771e+00 </wgt>
<wgt id='1063'> +1.3570934e+00 </wgt>
<wgt id='1064'> +1.3595181e+00 </wgt>
<wgt id='1065'> +1.3618776e+00 </wgt>
<wgt id='1066'> +1.3481645e+00 </wgt>
<wgt id='1067'> +1.3498358e+00 </wgt>
<wgt id='1068'> +1.3521693e+00 </wgt>
<wgt id='1069'> +1.3580202e+00 </wgt>
<wgt id='1070'> +1.3591752e+00 </wgt>
<wgt id='1071'> +1.3577605e+00 </wgt>
<wgt id='1072'> +1.3525891e+00 </wgt>
<wgt id='1073'> +1.3622289e+00 </wgt>
<wgt id='1074'> +1.3622600e+00 </wgt>
<wgt id='1075'> +1.3617946e+00 </wgt>
<wgt id='1076'> +1.3539300e+00 </wgt>
<wgt id='1077'> +1.3631287e+00 </wgt>
<wgt id='1078'> +1.3592286e+00 </wgt>
<wgt id='1079'> +1.3624039e+00 </wgt>
<wgt id='1080'> +1.3603422e+00 </wgt>
<wgt id='1081'> +1.3587305e+00 </wgt>
<wgt id='1082'> +1.3568662e+00 </wgt>
<wgt id='1083'> +1.3576179e+00 </wgt>
<wgt id='1084'> +1.3550044e+00 </wgt>
<wgt id='1085'> +1.3580660e+00 </wgt>
<wgt id='1086'> +1.3542709e+00 </wgt>
<wgt id='1087'> +1.3566076e+00 </wgt>
<wgt id='1088'> +1.3559741e+00 </wgt>
<wgt id='1089'> +1.3553300e+00 </wgt>
<wgt id='1090'> +1.3597120e+00 </wgt>
<wgt id='1091'> +1.3563178e+00 </wgt>
<wgt id='1092'> +1.3567291e+00 </wgt>
<wgt id='1093'> +1.3579614e+00 </wgt>
<wgt id='1094'> +1.3571016e+00 </wgt>
<wgt id='1095'> +1.3561960e+00 </wgt>
<wgt id='1096'> +1.3560520e+00 </wgt>
<wgt id='1097'> +1.3569537e+00 </wgt>
<wgt id='1098'> +1.3567033e+00 </wgt>
<wgt id='1099'> +1.3570018e+00 </wgt>
<wgt id='1100'> +1.3607294e+00 </wgt>
<wgt id='1101'> +1.3571565e+00 </wgt>
<wgt id='1102'> +1.3570371e+00 </wgt>
<wgt id='1103'> +1.3585855e+00 </wgt>
<wgt id='1104'> +1.3575744e+00 </wgt>
<wgt id='1105'> +1.3588648e+00 </wgt>
<wgt id='1106'> +1.3603449e+00 </wgt>
<wgt id='1107'> +1.3565043e+00 </wgt>
<wgt id='1108'> +1.3584944e+00 </wgt>
<wgt id='1109'> +1.3587105e+00 </wgt>
<wgt id='1110'> +1.3589240e+00 </wgt>
<wgt id='1111'> +1.3568072e+00 </wgt>
<wgt id='1112'> +1.3592255e+00 </wgt>
<wgt id='1113'> +1.3575031e+00 </wgt>
<wgt id='1114'> +1.3538866e+00 </wgt>
<wgt id='1115'> +1.3585286e+00 </wgt>
<wgt id='1116'> +1.3598891e+00 </wgt>
<wgt id='1117'> +1.3592050e+00 </wgt>
<wgt id='1118'> +1.3585058e+00 </wgt>
<wgt id='1119'> +1.3588408e+00 </wgt>
<wgt id='1120'> +1.3564297e+00 </wgt>
<wgt id='1121'> +1.3601781e+00 </wgt>
<wgt id='1122'> +1.3583299e+00 </wgt>
<wgt id='1123'> +1.3587092e+00 </wgt>
<wgt id='1124'> +1.3572869e+00 </wgt>
<wgt id='1125'> +1.3578749e+00 </wgt>
<wgt id='1126'> +1.3587250e+00 </wgt>
<wgt id='1127'> +1.3582156e+00 </wgt>
<wgt id='1128'> +1.3582168e+00 </wgt>
<wgt id='1129'> +1.3576730e+00 </wgt>
<wgt id='1130'> +1.3588523e+00 </wgt>
<wgt id='1131'> +1.3597029e+00 </wgt>
<wgt id='1132'> +1.3576317e+00 </wgt>
<wgt id='1133'> +1.3588449e+00 </wgt>
<wgt id='1134'> +1.3577061e+00 </wgt>
<wgt id='1135'> +1.3589041e+00 </wgt>
<wgt id='1136'> +1.3587183e+00 </wgt>
<wgt id='1137'> +1.3576154e+00 </wgt>
<wgt id='1138'> +1.3590786e+00 </wgt>
<wgt id='1139'> +1.3584219e+00 </wgt>
<wgt id='1140'> +1.3597293e+00 </wgt>
<wgt id='1141'> +1.3575563e+00 </wgt>
<wgt id='1142'> +1.3587626e+00 </wgt>
<wgt id='1143'> +1.3592396e+00 </wgt>
<wgt id='1144'> +1.3574590e+00 </wgt>
<wgt id='1145'> +1.3581223e+00 </wgt>
<wgt id='1146'> +1.3583190e+00 </wgt>
<wgt id='1147'> +1.3588850e+00 </wgt>
<wgt id='1148'> +1.3581722e+00 </wgt>
<wgt id='1149'> +1.2320325e+00 </wgt>
<wgt id='1150'> +1.2670077e+00 </wgt>
<wgt id='1151'> +1.2233071e+00 </wgt>
<wgt id='1152'> +1.2434497e+00 </wgt>
<wgt id='1153'> +1.2192679e+00 </wgt>
<wgt id='1154'> +1.2437959e+00 </wgt>
<wgt id='1155'> +1.2370802e+00 </wgt>
<wgt id='1156'> +1.2135429e+00 </wgt>
<wgt id='1157'> +1.2198073e+00 </wgt>
<wgt id='1158'> +1.2199945e+00 </wgt>
<wgt id='1159'> +1.2160929e+00 </wgt>
<wgt id='1160'> +1.2248411e+00 </wgt>
<wgt id='1161'> +1.2360509e+00 </wgt>
<wgt id='1162'> +1.2088179e+00 </wgt>
<wgt id='1163'> +1.2507570e+00 </wgt>
<wgt id='1164'> +1.2153826e+00 </wgt>
<wgt id='1165'> +1.2082196e+00 </wgt>
<wgt id='1166'> +1.2304676e+00 </wgt>
<wgt id='1167'> +1.2189905e+00 </wgt>
<wgt id='1168'> +1.2164522e+00 </wgt>
<wgt id='1169'> +1.2032787e+00 </wgt>
<wgt id='1170'> +1.2540506e+00 </wgt>
<wgt id='1171'> +1.2233693e+00 </wgt>
<wgt id='1172'> +1.2358981e+00 </wgt>
<wgt id='1173'> +1.2319546e+00 </wgt>
<wgt id='1174'> +1.2411158e+00 </wgt>
<wgt id='1175'> +1.2248500e+00 </wgt>
<wgt id='1176'> +1.2191073e+00 </wgt>
<wgt id='1177'> +1.2211400e+00 </wgt>
<wgt id='1178'> +1.2245048e+00 </wgt>
<wgt id='1179'> +1.1920246e+00 </wgt>
<wgt id='1180'> +1.2859835e+00 </wgt>
<wgt id='1181'> +1.2126209e+00 </wgt>
<wgt id='1182'> +1.2373320e+00 </wgt>
<wgt id='1183'> +1.2431223e+00 </wgt>
<wgt id='1184'> +1.2439840e+00 </wgt>
<wgt id='1185'> +1.2588370e+00 </wgt>
<wgt id='1186'> +1.2097522e+00 </wgt>
<wgt id='1187'> +1.2343374e+00 </wgt>
<wgt id='1188'> +1.2121092e+00 </wgt>
<wgt id='1189'> +1.2360053e+00 </wgt>
<wgt id='1190'> +1.2246240e+00 </wgt>
<wgt id='1191'> +1.2452023e+00 </wgt>
<wgt id='1192'> +1.2379647e+00 </wgt>
<wgt id='1193'> +1.2619467e+00 </wgt>
<wgt id='1194'> +1.2271724e+00 </wgt>
<wgt id='1195'> +1.2184743e+00 </wgt>
<wgt id='1196'> +1.2528203e+00 </wgt>
<wgt id='1197'> +1.2631935e+00 </wgt>
<wgt id='1198'> +1.2417211e+00 </wgt>
<wgt id='1199'> +1.2511427e+00 </wgt>
<wgt id='1200'> +1.2403938e+00 </wgt>
<wgt id='1201'> +1.2407854e+00 </wgt>
<wgt id='1202'> +1.2505453e+00 </wgt>
<wgt id='1203'> +1.2403912e+00 </wgt>
<wgt id='1204'> +1.2595502e+00 </wgt>
<wgt id='1205'> +1.2147431e+00 </wgt>
<wgt id='1206'> +1.2283036e+00 </wgt>
<wgt id='1207'> +1.2730780e+00 </wgt>
<wgt id='1208'> +1.1953832e+00 </wgt>
<wgt id='1209'> +1.2530453e+00 </wgt>
<wgt id='1210'> +1.2126952e+00 </wgt>
<wgt id='1211'> +1.2463763e+00 </wgt>
<wgt id='1212'> +1.2359183e+00 </wgt>
<wgt id='1213'> +1.2801167e+00 </wgt>
<wgt id='1214'> +1.2244260e+00 </wgt>
<wgt id='1215'> +1.2275384e+00 </wgt>
<wgt id='1216'> +1.2457298e+00 </wgt>
<wgt id='1217'> +1.1911139e+00 </wgt>
<wgt id='1218'> +1.2247634e+00 </wgt>
<wgt id='1219'> +1.2623295e+00 </wgt>
<wgt id='1220'> +1.2280957e+00 </wgt>
<wgt id='1221'> +1.1893186e+00 </wgt>
<wgt id='1222'> +1.2205322e+00 </wgt>
<wgt id='1223'> +1.1926589e+00 </wgt>
<wgt id='1224'> +1.2013622e+00 </wgt>
<wgt id='1225'> +1.2611791e+00 </wgt>
<wgt id='1226'> +1.2278376e+00 </wgt>
<wgt id='1227'> +1.2529173e+00 </wgt>
<wgt id='1228'> +1.2312944e+00 </wgt>
<wgt id='1229'> +1.2437412e+00 </wgt>
<wgt id='1230'> +1.2669002e+00 </wgt>
<wgt id='1231'> +1.2082196e+00 </wgt>
<wgt id='1232'> +1.2178573e+00 </wgt>
<wgt id='1233'> +1.2117706e+00 </wgt>
<wgt id='1234'> +1.2367912e+00 </wgt>
<wgt id='1235'> +1.2544242e+00 </wgt>
<wgt id='1236'> +1.2298891e+00 </wgt>
<wgt id='1237'> +1.2155791e+00 </wgt>
<wgt id='1238'> +1.1876338e+00 </wgt>
<wgt id='1239'> +1.2549272e+00 </wgt>
<wgt id='1240'> +1.2529471e+00 </wgt>
<wgt id='1241'> +1.2423646e+00 </wgt>
<wgt id='1242'> +1.2228084e+00 </wgt>
<wgt id='1243'> +1.2334154e+00 </wgt>
<wgt id='1244'> +1.2144180e+00 </wgt>
<wgt id='1245'> +1.2525186e+00 </wgt>
<wgt id='1246'> +1.2756913e+00 </wgt>
<wgt id='1247'> +1.2044557e+00 </wgt>
<wgt id='1248'> +1.2051836e+00 </wgt>
<wgt id='1249'> +1.2206179e+00 </wgt>
<wgt id='1250'> +1.3988104e+00 </wgt>
<wgt id='1251'> +1.3678358e+00 </wgt>
<wgt id='1252'> +1.4570749e+00 </wgt>
<wgt id='1253'> +1.4476388e+00 </wgt>
<wgt id='1254'> +1.6571408e+00 </wgt>
<wgt id='1255'> +1.5127555e+00 </wgt>
<wgt id='1256'> +1.5251605e+00 </wgt>
<wgt id='1257'> +1.5055835e+00 </wgt>
<wgt id='1258'> +1.5110644e+00 </wgt>
<wgt id='1259'> +1.5135701e+00 </wgt>
<wgt id='1260'> +1.5152918e+00 </wgt>
<wgt id='1261'> +1.5093616e+00 </wgt>
<wgt id='1262'> +1.5145280e+00 </wgt>
<wgt id='1263'> +1.5115933e+00 </wgt>
<wgt id='1264'> +1.5123691e+00 </wgt>
<wgt id='1265'> +1.5130430e+00 </wgt>
<wgt id='1266'> +1.5143163e+00 </wgt>
<wgt id='1267'> +1.5112103e+00 </wgt>
<wgt id='1268'> +1.5295666e+00 </wgt>
<wgt id='1269'> +1.4960258e+00 </wgt>
<wgt id='1270'> +1.4961773e+00 </wgt>
<wgt id='1271'> +1.5310781e+00 </wgt>
<wgt id='1272'> +1.5082096e+00 </wgt>
<wgt id='1273'> +1.5162683e+00 </wgt>
<wgt id='1274'> +1.5166737e+00 </wgt>
<wgt id='1275'> +1.5079584e+00 </wgt>
<wgt id='1276'> +1.5328782e+00 </wgt>
<wgt id='1277'> +1.4925733e+00 </wgt>
<wgt id='1278'> +1.5024292e+00 </wgt>
<wgt id='1279'> +1.5213866e+00 </wgt>
<wgt id='1280'> +1.5132275e+00 </wgt>
<wgt id='1281'> +1.5119678e+00 </wgt>
<wgt id='1282'> +1.5036653e+00 </wgt>
<wgt id='1283'> +1.5199197e+00 </wgt>
<wgt id='1284'> +1.5136356e+00 </wgt>
<wgt id='1285'> +1.5127500e+00 </wgt>
<wgt id='1286'> +1.5215578e+00 </wgt>
<wgt id='1287'> +1.5122426e+00 </wgt>
<wgt id='1288'> +1.5175845e+00 </wgt>
<wgt id='1289'> +1.5102368e+00 </wgt>
<wgt id='1290'> +1.5154309e+00 </wgt>
<wgt id='1291'> +1.5118321e+00 </wgt>
<wgt id='1292'> +1.5245835e+00 </wgt>
<wgt id='1293'> +1.4997435e+00 </wgt>
<wgt id='1294'> +1.5157832e+00 </wgt>
<wgt id='1295'> +1.5049055e+00 </wgt>
<wgt id='1296'> +1.4386261e+00 </wgt>
<wgt id='1297'> +1.4427483e+00 </wgt>
<wgt id='1298'> +1.4352835e+00 </wgt>
<wgt id='1299'> +1.4320238e+00 </wgt>
<wgt id='1300'> +1.4459459e+00 </wgt>
<wgt id='1301'> +1.4345786e+00 </wgt>
<wgt id='1302'> +1.4445982e+00 </wgt>
<wgt id='1303'> +1.4380622e+00 </wgt>
<wgt id='1304'> +1.4389548e+00 </wgt>
<wgt id='1305'> +1.4399937e+00 </wgt>
<wgt id='1306'> +1.4366740e+00 </wgt>
<wgt id='1307'> +1.4453891e+00 </wgt>
<wgt id='1308'> +1.4343885e+00 </wgt>
<wgt id='1309'> +1.4392502e+00 </wgt>
<wgt id='1310'> +1.4377983e+00 </wgt>
<wgt id='1311'> +1.4513411e+00 </wgt>
<wgt id='1312'> +1.4339712e+00 </wgt>
<wgt id='1313'> +1.4202483e+00 </wgt>
<wgt id='1314'> +1.4617943e+00 </wgt>
<wgt id='1315'> +1.4413774e+00 </wgt>
<wgt id='1316'> +1.4360636e+00 </wgt>
<wgt id='1317'> +1.4531937e+00 </wgt>
<wgt id='1318'> +1.4150376e+00 </wgt>
<wgt id='1319'> +1.4227043e+00 </wgt>
<wgt id='1320'> +1.4492914e+00 </wgt>
<wgt id='1321'> +1.4245038e+00 </wgt>
<wgt id='1322'> +1.4457669e+00 </wgt>
<wgt id='1323'> +1.4353460e+00 </wgt>
<wgt id='1324'> +1.4426904e+00 </wgt>
<wgt id='1325'> +1.4378055e+00 </wgt>
<wgt id='1326'> +1.4413864e+00 </wgt>
<wgt id='1327'> +1.4355415e+00 </wgt>
<wgt id='1328'> +1.4399614e+00 </wgt>
<wgt id='1329'> +1.4399419e+00 </wgt>
<wgt id='1330'> +1.4378072e+00 </wgt>
<wgt id='1331'> +1.4497036e+00 </wgt>
<wgt id='1332'> +1.4347267e+00 </wgt>
<wgt id='1333'> +1.4330462e+00 </wgt>
<wgt id='1334'> +1.4570823e+00 </wgt>
<wgt id='1335'> +1.4468722e+00 </wgt>
<wgt id='1336'> +1.4366151e+00 </wgt>
<wgt id='1337'> +1.4386261e+00 </wgt>
<wgt id='1338'> +1.4421140e+00 </wgt>
<wgt id='1339'> +1.4407010e+00 </wgt>
<wgt id='1340'> +1.4393430e+00 </wgt>
<wgt id='1341'> +1.4371120e+00 </wgt>
<wgt id='1342'> +1.4361402e+00 </wgt>
<wgt id='1343'> +1.4352097e+00 </wgt>
<wgt id='1344'> +1.4017748e+00 </wgt>
<wgt id='1345'> +1.4083907e+00 </wgt>
<wgt id='1346'> +1.3951951e+00 </wgt>
<wgt id='1347'> +1.4134684e+00 </wgt>
<wgt id='1348'> +1.3931760e+00 </wgt>
<wgt id='1349'> +1.3998004e+00 </wgt>
<wgt id='1350'> +1.4034140e+00 </wgt>
<wgt id='1351'> +1.4017944e+00 </wgt>
<wgt id='1352'> +1.4017332e+00 </wgt>
<wgt id='1353'> +1.4060870e+00 </wgt>
<wgt id='1354'> +1.3987291e+00 </wgt>
<wgt id='1355'> +1.4003156e+00 </wgt>
<wgt id='1356'> +1.4029031e+00 </wgt>
<wgt id='1357'> +1.4052283e+00 </wgt>
<wgt id='1358'> +1.3996590e+00 </wgt>
<wgt id='1359'> +1.3959008e+00 </wgt>
<wgt id='1360'> +1.4164116e+00 </wgt>
<wgt id='1361'> +1.3754860e+00 </wgt>
<wgt id='1362'> +1.4251957e+00 </wgt>
<wgt id='1363'> +1.3968761e+00 </wgt>
<wgt id='1364'> +1.4079161e+00 </wgt>
<wgt id='1365'> +1.3942222e+00 </wgt>
<wgt id='1366'> +1.4052981e+00 </wgt>
<wgt id='1367'> +1.3878258e+00 </wgt>
<wgt id='1368'> +1.4088486e+00 </wgt>
<wgt id='1369'> +1.4125607e+00 </wgt>
<wgt id='1370'> +1.3930393e+00 </wgt>
<wgt id='1371'> +1.4002064e+00 </wgt>
<wgt id='1372'> +1.4044156e+00 </wgt>
<wgt id='1373'> +1.4023302e+00 </wgt>
<wgt id='1374'> +1.4060886e+00 </wgt>
<wgt id='1375'> +1.3991538e+00 </wgt>
<wgt id='1376'> +1.4029813e+00 </wgt>
<wgt id='1377'> +1.3996211e+00 </wgt>
<wgt id='1378'> +1.4056982e+00 </wgt>
<wgt id='1379'> +1.3982240e+00 </wgt>
<wgt id='1380'> +1.4097565e+00 </wgt>
<wgt id='1381'> +1.4026022e+00 </wgt>
<wgt id='1382'> +1.4113421e+00 </wgt>
<wgt id='1383'> +1.3998201e+00 </wgt>
<wgt id='1384'> +1.4156847e+00 </wgt>
<wgt id='1385'> +1.4017748e+00 </wgt>
<wgt id='1386'> +1.4048979e+00 </wgt>
<wgt id='1387'> +1.4035849e+00 </wgt>
<wgt id='1388'> +1.4023458e+00 </wgt>
<wgt id='1389'> +1.4003563e+00 </wgt>
<wgt id='1390'> +1.3993281e+00 </wgt>
<wgt id='1391'> +1.3985094e+00 </wgt>
<wgt id='1392'> +1.4708903e+00 </wgt>
<wgt id='1393'> +1.4717188e+00 </wgt>
<wgt id='1394'> +1.4699754e+00 </wgt>
<wgt id='1395'> +1.4717474e+00 </wgt>
<wgt id='1396'> +1.4702587e+00 </wgt>
<wgt id='1397'> +1.4780176e+00 </wgt>
<wgt id='1398'> +1.4639887e+00 </wgt>
<wgt id='1399'> +1.4788631e+00 </wgt>
<wgt id='1400'> +1.4611117e+00 </wgt>
<wgt id='1401'> +1.4655756e+00 </wgt>
<wgt id='1402'> +1.4773970e+00 </wgt>
<wgt id='1403'> +1.4689522e+00 </wgt>
<wgt id='1404'> +1.4747672e+00 </wgt>
<wgt id='1405'> +1.4692496e+00 </wgt>
<wgt id='1406'> +1.4731686e+00 </wgt>
<wgt id='1407'> +1.4710512e+00 </wgt>
<wgt id='1408'> +1.4707855e+00 </wgt>
<wgt id='1409'> +1.4759893e+00 </wgt>
<wgt id='1410'> +1.4649962e+00 </wgt>
<wgt id='1411'> +1.4676206e+00 </wgt>
<wgt id='1412'> +1.4733845e+00 </wgt>
<wgt id='1413'> +1.4763190e+00 </wgt>
<wgt id='1414'> +1.4650959e+00 </wgt>
<wgt id='1415'> +1.4729291e+00 </wgt>
<wgt id='1416'> +1.4681224e+00 </wgt>
<wgt id='1417'> +1.4519449e+00 </wgt>
<wgt id='1418'> +1.4942796e+00 </wgt>
<wgt id='1419'> +1.4690832e+00 </wgt>
<wgt id='1420'> +1.4706288e+00 </wgt>
<wgt id='1421'> +1.4581559e+00 </wgt>
<wgt id='1422'> +1.4861945e+00 </wgt>
<wgt id='1423'> +1.4456346e+00 </wgt>
<wgt id='1424'> +1.4898944e+00 </wgt>
<wgt id='1425'> +1.4726976e+00 </wgt>
<wgt id='1426'> +1.4684727e+00 </wgt>
<wgt id='1427'> +1.4726210e+00 </wgt>
<wgt id='1428'> +1.4591208e+00 </wgt>
<wgt id='1429'> +1.4684049e+00 </wgt>
<wgt id='1430'> +1.4725914e+00 </wgt>
<wgt id='1431'> +1.4657081e+00 </wgt>
<wgt id='1432'> +1.4754938e+00 </wgt>
<wgt id='1433'> +1.4557885e+00 </wgt>
<wgt id='1434'> +1.4873810e+00 </wgt>
<wgt id='1435'> +1.4674388e+00 </wgt>
<wgt id='1436'> +1.4768774e+00 </wgt>
<wgt id='1437'> +1.4683766e+00 </wgt>
<wgt id='1438'> +1.4771871e+00 </wgt>
<wgt id='1439'> +1.4699144e+00 </wgt>
<wgt id='1440'> +1.4825599e+00 </wgt>
<wgt id='1441'> +1.4693467e+00 </wgt>
<wgt id='1442'> +1.4750785e+00 </wgt>
<wgt id='1443'> +1.4550988e+00 </wgt>
<wgt id='1444'> +1.4560002e+00 </wgt>
<wgt id='1445'> +1.4541028e+00 </wgt>
<wgt id='1446'> +1.4560327e+00 </wgt>
<wgt id='1447'> +1.4544403e+00 </wgt>
<wgt id='1448'> +1.4625848e+00 </wgt>
<wgt id='1449'> +1.4481259e+00 </wgt>
<wgt id='1450'> +1.4626340e+00 </wgt>
<wgt id='1451'> +1.4467450e+00 </wgt>
<wgt id='1452'> +1.4499412e+00 </wgt>
<wgt id='1453'> +1.4600657e+00 </wgt>
<wgt id='1454'> +1.4528932e+00 </wgt>
<wgt id='1455'> +1.4598710e+00 </wgt>
<wgt id='1456'> +1.4533429e+00 </wgt>
<wgt id='1457'> +1.4582053e+00 </wgt>
<wgt id='1458'> +1.4556482e+00 </wgt>
<wgt id='1459'> +1.4547874e+00 </wgt>
<wgt id='1460'> +1.4597315e+00 </wgt>
<wgt id='1461'> +1.4494942e+00 </wgt>
<wgt id='1462'> +1.4508447e+00 </wgt>
<wgt id='1463'> +1.4587561e+00 </wgt>
<wgt id='1464'> +1.4602937e+00 </wgt>
<wgt id='1465'> +1.4482317e+00 </wgt>
<wgt id='1466'> +1.4599125e+00 </wgt>
<wgt id='1467'> +1.4510112e+00 </wgt>
<wgt id='1468'> +1.4784187e+00 </wgt>
<wgt id='1469'> +1.4323051e+00 </wgt>
<wgt id='1470'> +1.4542016e+00 </wgt>
<wgt id='1471'> +1.4545037e+00 </wgt>
<wgt id='1472'> +1.4452384e+00 </wgt>
<wgt id='1473'> +1.4670255e+00 </wgt>
<wgt id='1474'> +1.4371278e+00 </wgt>
<wgt id='1475'> +1.4751069e+00 </wgt>
<wgt id='1476'> +1.4608660e+00 </wgt>
<wgt id='1477'> +1.4494447e+00 </wgt>
<wgt id='1478'> +1.4568607e+00 </wgt>
<wgt id='1479'> +1.4430183e+00 </wgt>
<wgt id='1480'> +1.4537896e+00 </wgt>
<wgt id='1481'> +1.4554652e+00 </wgt>
<wgt id='1482'> +1.4503127e+00 </wgt>
<wgt id='1483'> +1.4600657e+00 </wgt>
<wgt id='1484'> +1.4393536e+00 </wgt>
<wgt id='1485'> +1.4719047e+00 </wgt>
<wgt id='1486'> +1.4519686e+00 </wgt>
<wgt id='1487'> +1.4603939e+00 </wgt>
<wgt id='1488'> +1.4518649e+00 </wgt>
<wgt id='1489'> +1.4628205e+00 </wgt>
<wgt id='1490'> +1.4544759e+00 </wgt>
<wgt id='1491'> +1.4689974e+00 </wgt>
<wgt id='1492'> +1.4523121e+00 </wgt>
<wgt id='1493'> +1.4612262e+00 </wgt>
<wgt id='1494'> +1.4034549e+00 </wgt>
<wgt id='1495'> +1.3827392e+00 </wgt>
<wgt id='1496'> +1.3896187e+00 </wgt>
<wgt id='1497'> +1.3968090e+00 </wgt>
<wgt id='1498'> +1.4132673e+00 </wgt>
<wgt id='1499'> +1.4045028e+00 </wgt>
<wgt id='1500'> +1.4258726e+00 </wgt>
<wgt id='1501'> +1.4220484e+00 </wgt>
<wgt id='1502'> +1.4181079e+00 </wgt>
<wgt id='1503'> +1.4137640e+00 </wgt>
<wgt id='1504'> +1.4092564e+00 </wgt>
<wgt id='1505'> +1.3997779e+00 </wgt>
<wgt id='1506'> +1.3951086e+00 </wgt>
<wgt id='1507'> +1.3903651e+00 </wgt>
<wgt id='1508'> +1.4045028e+00 </wgt>
<wgt id='1509'> +1.4070493e+00 </wgt>
<wgt id='1510'> +1.4056440e+00 </wgt>
<wgt id='1511'> +1.4036342e+00 </wgt>
<wgt id='1512'> +1.4029996e+00 </wgt>
<wgt id='1513'> +1.4141488e+00 </wgt>
<wgt id='1514'> +1.4142469e+00 </wgt>
<wgt id='1515'> +1.4140803e+00 </wgt>
<wgt id='1516'> +1.4172640e+00 </wgt>
<wgt id='1517'> +1.4110772e+00 </wgt>
<wgt id='1518'> +1.4167788e+00 </wgt>
<wgt id='1519'> +1.4131050e+00 </wgt>
<wgt id='1520'> +1.4260636e+00 </wgt>
<wgt id='1521'> +1.4023126e+00 </wgt>
<wgt id='1522'> +1.4116615e+00 </wgt>
<wgt id='1523'> +1.4165351e+00 </wgt>
<wgt id='1524'> +1.4240865e+00 </wgt>
<wgt id='1525'> +1.4098713e+00 </wgt>
<wgt id='1526'> +1.4140582e+00 </wgt>
<wgt id='1527'> +1.4142977e+00 </wgt>
<wgt id='1528'> +1.4129219e+00 </wgt>
<wgt id='1529'> +1.4155086e+00 </wgt>
<wgt id='1530'> +1.4179170e+00 </wgt>
<wgt id='1531'> +1.4120210e+00 </wgt>
<wgt id='1532'> +1.4180019e+00 </wgt>
<wgt id='1533'> +1.4088643e+00 </wgt>
<wgt id='1534'> +1.4097805e+00 </wgt>
<wgt id='1535'> +1.4172043e+00 </wgt>
<wgt id='1536'> +1.4001984e+00 </wgt>
<wgt id='1537'> +1.4276171e+00 </wgt>
<wgt id='1538'> +1.4098252e+00 </wgt>
<wgt id='1539'> +1.4241089e+00 </wgt>
<wgt id='1540'> +1.4087710e+00 </wgt>
<wgt id='1541'> +1.4166823e+00 </wgt>
<wgt id='1542'> +1.4239009e+00 </wgt>
<wgt id='1543'> +1.3902620e+00 </wgt>
<wgt id='1544'> +1.4054187e+00 </wgt>
<wgt id='1545'> +1.4298062e+00 </wgt>
<wgt id='1546'> +1.4165786e+00 </wgt>
<wgt id='1547'> +1.4063953e+00 </wgt>
<wgt id='1548'> +1.3997414e+00 </wgt>
<wgt id='1549'> +1.4178566e+00 </wgt>
<wgt id='1550'> +1.4135318e+00 </wgt>
<wgt id='1551'> +1.4146881e+00 </wgt>
<wgt id='1552'> +1.4076473e+00 </wgt>
<wgt id='1553'> +1.4186558e+00 </wgt>
<wgt id='1554'> +1.4286535e+00 </wgt>
<wgt id='1555'> +1.3910934e+00 </wgt>
<wgt id='1556'> +1.4162558e+00 </wgt>
<wgt id='1557'> +1.4135704e+00 </wgt>
<wgt id='1558'> +1.4159374e+00 </wgt>
<wgt id='1559'> +1.4151779e+00 </wgt>
<wgt id='1560'> +1.4191659e+00 </wgt>
<wgt id='1561'> +1.4121321e+00 </wgt>
<wgt id='1562'> +1.4175400e+00 </wgt>
<wgt id='1563'> +1.4136387e+00 </wgt>
<wgt id='1564'> +1.4141488e+00 </wgt>
<wgt id='1565'> +1.4003818e+00 </wgt>
<wgt id='1566'> +1.4307329e+00 </wgt>
<wgt id='1567'> +1.4159520e+00 </wgt>
<wgt id='1568'> +1.4420232e+00 </wgt>
<wgt id='1569'> +1.4367332e+00 </wgt>
<wgt id='1570'> +1.4316115e+00 </wgt>
<wgt id='1571'> +1.4266092e+00 </wgt>
<wgt id='1572'> +1.4211642e+00 </wgt>
<wgt id='1573'> +1.4097257e+00 </wgt>
<wgt id='1574'> +1.4035945e+00 </wgt>
<wgt id='1575'> +1.3980815e+00 </wgt>
<wgt id='1576'> +1.4159520e+00 </wgt>
<wgt id='1577'> +1.4174079e+00 </wgt>
<wgt id='1578'> +1.4165359e+00 </wgt>
<wgt id='1579'> +1.4155299e+00 </wgt>
<wgt id='1580'> +1.4153021e+00 </wgt>
<wgt id='1581'> +1.4219866e+00 </wgt>
<wgt id='1582'> +1.4239129e+00 </wgt>
<wgt id='1583'> +1.4182089e+00 </wgt>
<wgt id='1584'> +1.4186381e+00 </wgt>
<wgt id='1585'> +1.4219226e+00 </wgt>
<wgt id='1586'> +1.3988149e+00 </wgt>
<wgt id='1587'> +1.4157928e+00 </wgt>
<wgt id='1588'> +1.4218884e+00 </wgt>
<wgt id='1589'> +1.4210840e+00 </wgt>
<wgt id='1590'> +1.4386249e+00 </wgt>
<wgt id='1591'> +1.4238210e+00 </wgt>
<wgt id='1592'> +1.3936298e+00 </wgt>
<wgt id='1593'> +1.4230921e+00 </wgt>
<wgt id='1594'> +1.4005097e+00 </wgt>
<wgt id='1595'> +1.4237396e+00 </wgt>
<wgt id='1596'> +1.4286727e+00 </wgt>
<wgt id='1597'> +1.4262804e+00 </wgt>
<wgt id='1598'> +1.4214691e+00 </wgt>
<wgt id='1599'> +1.4146194e+00 </wgt>
<wgt id='1600'> +1.4182320e+00 </wgt>
<wgt id='1601'> +1.4162526e+00 </wgt>
<wgt id='1602'> +1.4212828e+00 </wgt>
<wgt id='1603'> +1.4292883e+00 </wgt>
<wgt id='1604'> +1.4182152e+00 </wgt>
<wgt id='1605'> +1.4152942e+00 </wgt>
<wgt id='1606'> +1.4214910e+00 </wgt>
<wgt id='1607'> +1.4205347e+00 </wgt>
<wgt id='1608'> +1.4202617e+00 </wgt>
<wgt id='1609'> +1.4200789e+00 </wgt>
<wgt id='1610'> +1.4245096e+00 </wgt>
<wgt id='1611'> +1.4108023e+00 </wgt>
<wgt id='1612'> +1.3403854e+00 </wgt>
<wgt id='1613'> +1.3398297e+00 </wgt>
<wgt id='1614'> +1.3402487e+00 </wgt>
<wgt id='1615'> +1.3392001e+00 </wgt>
<wgt id='1616'> +1.3405083e+00 </wgt>
<wgt id='1617'> +1.3409429e+00 </wgt>
<wgt id='1618'> +1.3413110e+00 </wgt>
<wgt id='1619'> +1.3405459e+00 </wgt>
<wgt id='1620'> +1.3413296e+00 </wgt>
<wgt id='1621'> +1.3400100e+00 </wgt>
<wgt id='1622'> +1.3412467e+00 </wgt>
<wgt id='1623'> +1.3376813e+00 </wgt>
<wgt id='1624'> +1.3361932e+00 </wgt>
<wgt id='1625'> +1.3356138e+00 </wgt>
<wgt id='1626'> +1.3401244e+00 </wgt>
<wgt id='1627'> +1.3357033e+00 </wgt>
<wgt id='1628'> +1.3426971e+00 </wgt>
<wgt id='1629'> +1.3418658e+00 </wgt>
<wgt id='1630'> +1.3366764e+00 </wgt>
<wgt id='1631'> +1.3426071e+00 </wgt>
<wgt id='1632'> +1.3370940e+00 </wgt>
<wgt id='1633'> +1.3425223e+00 </wgt>
<wgt id='1634'> +1.3385162e+00 </wgt>
<wgt id='1635'> +1.3377578e+00 </wgt>
<wgt id='1636'> +1.3385139e+00 </wgt>
<wgt id='1637'> +1.3387523e+00 </wgt>
<wgt id='1638'> +1.3379462e+00 </wgt>
<wgt id='1639'> +1.3421268e+00 </wgt>
<wgt id='1640'> +1.3423863e+00 </wgt>
<wgt id='1641'> +1.3363396e+00 </wgt>
<wgt id='1642'> +1.3401168e+00 </wgt>
<wgt id='1643'> +1.3388670e+00 </wgt>
<wgt id='1644'> +1.3425032e+00 </wgt>
<wgt id='1645'> +1.3408952e+00 </wgt>
<wgt id='1646'> +1.3364525e+00 </wgt>
<wgt id='1647'> +1.3378404e+00 </wgt>
<wgt id='1648'> +1.3377820e+00 </wgt>
<wgt id='1649'> +1.3372018e+00 </wgt>
<wgt id='1650'> +1.3399043e+00 </wgt>
<wgt id='1651'> +1.3475636e+00 </wgt>
<wgt id='1652'> +1.3452207e+00 </wgt>
<wgt id='1653'> +1.3409787e+00 </wgt>
<wgt id='1654'> +1.3318879e+00 </wgt>
<wgt id='1655'> +1.3423180e+00 </wgt>
<wgt id='1656'> +1.3388603e+00 </wgt>
<wgt id='1657'> +1.3396668e+00 </wgt>
<wgt id='1658'> +1.3424036e+00 </wgt>
<wgt id='1659'> +1.3445642e+00 </wgt>
<wgt id='1660'> +1.3378607e+00 </wgt>
<wgt id='1661'> +1.3400879e+00 </wgt>
<wgt id='1662'> +1.3428014e+00 </wgt>
<wgt id='1663'> +1.3461278e+00 </wgt>
<wgt id='1664'> +1.3425783e+00 </wgt>
<wgt id='1665'> +1.3435852e+00 </wgt>
<wgt id='1666'> +1.3433268e+00 </wgt>
<wgt id='1667'> +1.3411297e+00 </wgt>
<wgt id='1668'> +1.3380869e+00 </wgt>
<wgt id='1669'> +1.3400766e+00 </wgt>
<wgt id='1670'> +1.3384781e+00 </wgt>
<wgt id='1671'> +1.3403208e+00 </wgt>
<wgt id='1672'> +1.3395502e+00 </wgt>
<wgt id='1673'> +1.3391004e+00 </wgt>
<wgt id='1674'> +1.3394203e+00 </wgt>
<wgt id='1675'> +1.3413676e+00 </wgt>
<wgt id='1676'> +1.3372530e+00 </wgt>
<wgt id='1677'> +1.3424344e+00 </wgt>
<wgt id='1678'> +1.3424560e+00 </wgt>
<wgt id='1679'> +1.3423384e+00 </wgt>
<wgt id='1680'> +1.3427650e+00 </wgt>
<wgt id='1681'> +1.3411992e+00 </wgt>
<wgt id='1682'> +1.3383068e+00 </wgt>
<wgt id='1683'> +1.3389690e+00 </wgt>
<wgt id='1684'> +1.3401246e+00 </wgt>
<wgt id='1685'> +1.3366732e+00 </wgt>
<wgt id='1686'> +1.3401236e+00 </wgt>
<wgt id='1687'> +1.3402596e+00 </wgt>
<wgt id='1688'> +1.3407211e+00 </wgt>
<wgt id='1689'> +1.3407835e+00 </wgt>
<wgt id='1690'> +1.3400338e+00 </wgt>
<wgt id='1691'> +1.3427395e+00 </wgt>
<wgt id='1692'> +1.3401929e+00 </wgt>
<wgt id='1693'> +1.3420559e+00 </wgt>
<wgt id='1694'> +1.3426393e+00 </wgt>
<wgt id='1695'> +1.3405106e+00 </wgt>
<wgt id='1696'> +1.3404109e+00 </wgt>
<wgt id='1697'> +1.3408205e+00 </wgt>
<wgt id='1698'> +1.3406710e+00 </wgt>
<wgt id='1699'> +1.3396265e+00 </wgt>
<wgt id='1700'> +1.3420363e+00 </wgt>
<wgt id='1701'> +1.3391214e+00 </wgt>
<wgt id='1702'> +1.3409003e+00 </wgt>
<wgt id='1703'> +1.3412903e+00 </wgt>
<wgt id='1704'> +1.3410184e+00 </wgt>
<wgt id='1705'> +1.3409526e+00 </wgt>
<wgt id='1706'> +1.3399214e+00 </wgt>
<wgt id='1707'> +1.3410371e+00 </wgt>
<wgt id='1708'> +1.3389843e+00 </wgt>
<wgt id='1709'> +1.3411462e+00 </wgt>
<wgt id='1710'> +1.3394315e+00 </wgt>
<wgt id='1711'> +1.3409897e+00 </wgt>
<wgt id='1712'> +1.3392708e+00 </wgt>
<wgt id='1713'> +1.3265143e+00 </wgt>
<wgt id='1714'> +1.3625445e+00 </wgt>
<wgt id='1715'> +1.2904783e+00 </wgt>
<wgt id='1716'> +1.2476303e+00 </wgt>
<wgt id='1717'> +1.3188288e+00 </wgt>
<wgt id='1718'> +1.2716346e+00 </wgt>
<wgt id='1719'> +1.2557679e+00 </wgt>
<wgt id='1720'> +1.3243496e+00 </wgt>
<wgt id='1721'> +1.2910550e+00 </wgt>
<wgt id='1722'> +1.2311230e+00 </wgt>
<wgt id='1723'> +1.2839768e+00 </wgt>
<wgt id='1724'> +1.3029636e+00 </wgt>
<wgt id='1725'> +1.3111782e+00 </wgt>
<wgt id='1726'> +1.2815087e+00 </wgt>
<wgt id='1727'> +1.2917998e+00 </wgt>
<wgt id='1728'> +1.2793439e+00 </wgt>
<wgt id='1729'> +1.2864981e+00 </wgt>
<wgt id='1730'> +1.2729631e+00 </wgt>
<wgt id='1731'> +1.2436566e+00 </wgt>
<wgt id='1732'> +1.3012321e+00 </wgt>
<wgt id='1733'> +1.2950085e+00 </wgt>
<wgt id='1734'> +1.3472822e+00 </wgt>
<wgt id='1735'> +1.2501658e+00 </wgt>
<wgt id='1736'> +1.3137225e+00 </wgt>
<wgt id='1737'> +1.2543356e+00 </wgt>
<wgt id='1738'> +1.3395544e+00 </wgt>
<wgt id='1739'> +1.2915346e+00 </wgt>
<wgt id='1740'> +1.2903128e+00 </wgt>
<wgt id='1741'> +1.2715866e+00 </wgt>
<wgt id='1742'> +1.3010704e+00 </wgt>
<wgt id='1743'> +1.2660006e+00 </wgt>
<wgt id='1744'> +1.3158524e+00 </wgt>
<wgt id='1745'> +1.2887797e+00 </wgt>
<wgt id='1746'> +1.2648901e+00 </wgt>
<wgt id='1747'> +1.3029649e+00 </wgt>
<wgt id='1748'> +1.2659334e+00 </wgt>
<wgt id='1749'> +1.2673198e+00 </wgt>
<wgt id='1750'> +1.2623248e+00 </wgt>
<wgt id='1751'> +1.3215966e+00 </wgt>
<wgt id='1752'> +1.3185516e+00 </wgt>
<wgt id='1753'> +1.2976079e+00 </wgt>
<wgt id='1754'> +1.3073616e+00 </wgt>
<wgt id='1755'> +1.2804081e+00 </wgt>
<wgt id='1756'> +1.3360920e+00 </wgt>
<wgt id='1757'> +1.2908774e+00 </wgt>
<wgt id='1758'> +1.2408866e+00 </wgt>
<wgt id='1759'> +1.3071593e+00 </wgt>
<wgt id='1760'> +1.2813547e+00 </wgt>
<wgt id='1761'> +1.3022407e+00 </wgt>
<wgt id='1762'> +1.2917998e+00 </wgt>
<wgt id='1763'> +1.2941795e+00 </wgt>
<wgt id='1764'> +1.3054999e+00 </wgt>
<wgt id='1765'> +1.3071039e+00 </wgt>
<wgt id='1766'> +1.3319350e+00 </wgt>
<wgt id='1767'> +1.2712696e+00 </wgt>
<wgt id='1768'> +1.2837877e+00 </wgt>
<wgt id='1769'> +1.2861852e+00 </wgt>
<wgt id='1770'> +1.3128187e+00 </wgt>
<wgt id='1771'> +1.2621981e+00 </wgt>
<wgt id='1772'> +1.3004647e+00 </wgt>
<wgt id='1773'> +1.2943727e+00 </wgt>
<wgt id='1774'> +1.2966067e+00 </wgt>
<wgt id='1775'> +1.3133500e+00 </wgt>
<wgt id='1776'> +1.3137037e+00 </wgt>
<wgt id='1777'> +1.3015773e+00 </wgt>
<wgt id='1778'> +1.2913010e+00 </wgt>
<wgt id='1779'> +1.2837266e+00 </wgt>
<wgt id='1780'> +1.3249567e+00 </wgt>
<wgt id='1781'> +1.2916388e+00 </wgt>
<wgt id='1782'> +1.3651397e+00 </wgt>
<wgt id='1783'> +1.2922132e+00 </wgt>
<wgt id='1784'> +1.2940335e+00 </wgt>
<wgt id='1785'> +1.3112853e+00 </wgt>
<wgt id='1786'> +1.3288978e+00 </wgt>
<wgt id='1787'> +1.2820944e+00 </wgt>
<wgt id='1788'> +1.2769839e+00 </wgt>
<wgt id='1789'> +1.3215594e+00 </wgt>
<wgt id='1790'> +1.2829788e+00 </wgt>
<wgt id='1791'> +1.2782105e+00 </wgt>
<wgt id='1792'> +1.3003605e+00 </wgt>
<wgt id='1793'> +1.3143794e+00 </wgt>
<wgt id='1794'> +1.2715436e+00 </wgt>
<wgt id='1795'> +1.2166254e+00 </wgt>
<wgt id='1796'> +1.2790784e+00 </wgt>
<wgt id='1797'> +1.2723746e+00 </wgt>
<wgt id='1798'> +1.3349429e+00 </wgt>
<wgt id='1799'> +1.2943203e+00 </wgt>
<wgt id='1800'> +1.3083278e+00 </wgt>
<wgt id='1801'> +1.2581162e+00 </wgt>
<wgt id='1802'> +1.2628401e+00 </wgt>
<wgt id='1803'> +1.2814583e+00 </wgt>
<wgt id='1804'> +1.2921223e+00 </wgt>
<wgt id='1805'> +1.2892578e+00 </wgt>
<wgt id='1806'> +1.3005590e+00 </wgt>
<wgt id='1807'> +1.2967504e+00 </wgt>
<wgt id='1808'> +1.2801540e+00 </wgt>
<wgt id='1809'> +1.3101606e+00 </wgt>
<wgt id='1810'> +1.2763874e+00 </wgt>
<wgt id='1811'> +1.2703386e+00 </wgt>
<wgt id='1812'> +1.2577436e+00 </wgt>
<wgt id='1813'> +1.2805988e+00 </wgt>
<wgt id='1814'> +1.2450284e+00 </wgt>
<wgt id='1815'> +1.2811776e+00 </wgt>
<wgt id='1816'> +1.4281678e+00 </wgt>
<wgt id='1817'> +1.4607279e+00 </wgt>
<wgt id='1818'> +1.4502948e+00 </wgt>
<wgt id='1819'> +1.4426114e+00 </wgt>
<wgt id='1820'> +1.4107711e+00 </wgt>
<wgt id='1821'> +1.5004263e+00 </wgt>
<wgt id='1822'> +1.4055888e+00 </wgt>
<wgt id='1823'> +1.4386440e+00 </wgt>
<wgt id='1824'> +1.4314069e+00 </wgt>
<wgt id='1825'> +1.3796716e+00 </wgt>
<wgt id='1826'> +1.4848975e+00 </wgt>
<wgt id='1827'> +1.4741065e+00 </wgt>
<wgt id='1828'> +1.4139247e+00 </wgt>
<wgt id='1829'> +1.4523810e+00 </wgt>
<wgt id='1830'> +1.4921948e+00 </wgt>
<wgt id='1831'> +1.4448077e+00 </wgt>
<wgt id='1832'> +1.4276094e+00 </wgt>
<wgt id='1833'> +1.4763519e+00 </wgt>
<wgt id='1834'> +1.4369175e+00 </wgt>
<wgt id='1835'> +1.3982615e+00 </wgt>
<wgt id='1836'> +1.4101736e+00 </wgt>
<wgt id='1837'> +1.3912505e+00 </wgt>
<wgt id='1838'> +1.4168014e+00 </wgt>
<wgt id='1839'> +1.4189782e+00 </wgt>
<wgt id='1840'> +1.3848004e+00 </wgt>
<wgt id='1841'> +1.4244635e+00 </wgt>
<wgt id='1842'> +1.3822853e+00 </wgt>
<wgt id='1843'> +1.4688763e+00 </wgt>
<wgt id='1844'> +1.4616511e+00 </wgt>
<wgt id='1845'> +1.4411445e+00 </wgt>
<wgt id='1846'> +1.3766827e+00 </wgt>
<wgt id='1847'> +1.4056379e+00 </wgt>
<wgt id='1848'> +1.4437432e+00 </wgt>
<wgt id='1849'> +1.4293172e+00 </wgt>
<wgt id='1850'> +1.3670928e+00 </wgt>
<wgt id='1851'> +1.4396475e+00 </wgt>
<wgt id='1852'> +1.4176448e+00 </wgt>
<wgt id='1853'> +1.4121792e+00 </wgt>
<wgt id='1854'> +1.4368521e+00 </wgt>
<wgt id='1855'> +1.4348837e+00 </wgt>
<wgt id='1856'> +1.4172259e+00 </wgt>
<wgt id='1857'> +1.4314290e+00 </wgt>
<wgt id='1858'> +1.3803144e+00 </wgt>
<wgt id='1859'> +1.3801276e+00 </wgt>
<wgt id='1860'> +1.4122727e+00 </wgt>
<wgt id='1861'> +1.4453266e+00 </wgt>
<wgt id='1862'> +1.3938330e+00 </wgt>
<wgt id='1863'> +1.4340824e+00 </wgt>
<wgt id='1864'> +1.4381227e+00 </wgt>
<wgt id='1865'> +1.4906033e+00 </wgt>
<wgt id='1866'> +1.4466551e+00 </wgt>
<wgt id='1867'> +1.4190042e+00 </wgt>
<wgt id='1868'> +1.4359785e+00 </wgt>
<wgt id='1869'> +1.3952692e+00 </wgt>
<wgt id='1870'> +1.4306240e+00 </wgt>
<wgt id='1871'> +1.4322545e+00 </wgt>
<wgt id='1872'> +1.4581394e+00 </wgt>
<wgt id='1873'> +1.4288971e+00 </wgt>
<wgt id='1874'> +1.4559143e+00 </wgt>
<wgt id='1875'> +1.3974450e+00 </wgt>
<wgt id='1876'> +1.4264293e+00 </wgt>
<wgt id='1877'> +1.4417027e+00 </wgt>
<wgt id='1878'> +1.4149115e+00 </wgt>
<wgt id='1879'> +1.4176156e+00 </wgt>
<wgt id='1880'> +1.4509231e+00 </wgt>
<wgt id='1881'> +1.3565383e+00 </wgt>
<wgt id='1882'> +1.4122314e+00 </wgt>
<wgt id='1883'> +1.4459069e+00 </wgt>
<wgt id='1884'> +1.4176195e+00 </wgt>
<wgt id='1885'> +1.4293639e+00 </wgt>
<wgt id='1886'> +1.4194448e+00 </wgt>
<wgt id='1887'> +1.4062787e+00 </wgt>
<wgt id='1888'> +1.4123695e+00 </wgt>
<wgt id='1889'> +1.4950356e+00 </wgt>
<wgt id='1890'> +1.4029887e+00 </wgt>
<wgt id='1891'> +1.4665302e+00 </wgt>
<wgt id='1892'> +1.4145488e+00 </wgt>
<wgt id='1893'> +1.3992265e+00 </wgt>
<wgt id='1894'> +1.4039105e+00 </wgt>
<wgt id='1895'> +1.4596901e+00 </wgt>
<wgt id='1896'> +1.4164667e+00 </wgt>
<wgt id='1897'> +1.4144467e+00 </wgt>
<wgt id='1898'> +1.4644752e+00 </wgt>
<wgt id='1899'> +1.3623544e+00 </wgt>
<wgt id='1900'> +1.4634415e+00 </wgt>
<wgt id='1901'> +1.4453278e+00 </wgt>
<wgt id='1902'> +1.4292435e+00 </wgt>
<wgt id='1903'> +1.4464789e+00 </wgt>
<wgt id='1904'> +1.4561005e+00 </wgt>
<wgt id='1905'> +1.3776091e+00 </wgt>
<wgt id='1906'> +1.4080057e+00 </wgt>
<wgt id='1907'> +1.4374127e+00 </wgt>
<wgt id='1908'> +1.4116048e+00 </wgt>
<wgt id='1909'> +1.4527538e+00 </wgt>
<wgt id='1910'> +1.4277148e+00 </wgt>
<wgt id='1911'> +1.4817617e+00 </wgt>
<wgt id='1912'> +1.3764062e+00 </wgt>
<wgt id='1913'> +1.4345115e+00 </wgt>
<wgt id='1914'> +1.4024599e+00 </wgt>
<wgt id='1915'> +1.4388980e+00 </wgt>
<wgt id='1916'> +1.4429730e+00 </wgt>
<wgt id='1917'> +1.4895546e+00 </wgt>
<wgt id='1918'> +1.4568033e+00 </wgt>
<wgt id='1919'> +1.4281678e+00 </wgt>
<wgt id='1920'> +1.4607279e+00 </wgt>
<wgt id='1921'> +1.4502948e+00 </wgt>
<wgt id='1922'> +1.4426114e+00 </wgt>
<wgt id='1923'> +1.4107711e+00 </wgt>
<wgt id='1924'> +1.5004263e+00 </wgt>
<wgt id='1925'> +1.4055888e+00 </wgt>
<wgt id='1926'> +1.4386440e+00 </wgt>
<wgt id='1927'> +1.4314069e+00 </wgt>
<wgt id='1928'> +1.3796716e+00 </wgt>
<wgt id='1929'> +1.4848975e+00 </wgt>
<wgt id='1930'> +1.4741065e+00 </wgt>
<wgt id='1931'> +1.4139247e+00 </wgt>
<wgt id='1932'> +1.4523810e+00 </wgt>
<wgt id='1933'> +1.4921948e+00 </wgt>
<wgt id='1934'> +1.4448077e+00 </wgt>
<wgt id='1935'> +1.4276094e+00 </wgt>
<wgt id='1936'> +1.4763519e+00 </wgt>
<wgt id='1937'> +1.4369175e+00 </wgt>
<wgt id='1938'> +1.3982615e+00 </wgt>
<wgt id='1939'> +1.4101736e+00 </wgt>
<wgt id='1940'> +1.3912505e+00 </wgt>
<wgt id='1941'> +1.4168014e+00 </wgt>
<wgt id='1942'> +1.4189782e+00 </wgt>
<wgt id='1943'> +1.3848004e+00 </wgt>
<wgt id='1944'> +1.4244635e+00 </wgt>
<wgt id='1945'> +1.3822853e+00 </wgt>
<wgt id='1946'> +1.4688763e+00 </wgt>
<wgt id='1947'> +1.4616511e+00 </wgt>
<wgt id='1948'> +1.4411445e+00 </wgt>
<wgt id='1949'> +1.3766827e+00 </wgt>
<wgt id='1950'> +1.4056379e+00 </wgt>
<wgt id='1951'> +1.4437432e+00 </wgt>
<wgt id='1952'> +1.4293172e+00 </wgt>
<wgt id='1953'> +1.3670928e+00 </wgt>
<wgt id='1954'> +1.4396475e+00 </wgt>
<wgt id='1955'> +1.4176448e+00 </wgt>
<wgt id='1956'> +1.4121792e+00 </wgt>
<wgt id='1957'> +1.4368521e+00 </wgt>
<wgt id='1958'> +1.4348837e+00 </wgt>
<wgt id='1959'> +1.4172259e+00 </wgt>
<wgt id='1960'> +1.4314290e+00 </wgt>
<wgt id='1961'> +1.3803144e+00 </wgt>
<wgt id='1962'> +1.3801276e+00 </wgt>
<wgt id='1963'> +1.4122727e+00 </wgt>
<wgt id='1964'> +1.4453266e+00 </wgt>
<wgt id='1965'> +1.3938330e+00 </wgt>
<wgt id='1966'> +1.4340824e+00 </wgt>
<wgt id='1967'> +1.4381227e+00 </wgt>
<wgt id='1968'> +1.4906033e+00 </wgt>
<wgt id='1969'> +1.4466551e+00 </wgt>
<wgt id='1970'> +1.4190042e+00 </wgt>
<wgt id='1971'> +1.4359785e+00 </wgt>
<wgt id='1972'> +1.3952692e+00 </wgt>
<wgt id='1973'> +1.4306240e+00 </wgt>
<wgt id='1974'> +1.4322545e+00 </wgt>
<wgt id='1975'> +1.4581394e+00 </wgt>
<wgt id='1976'> +1.4288971e+00 </wgt>
<wgt id='1977'> +1.4559143e+00 </wgt>
<wgt id='1978'> +1.3974450e+00 </wgt>
<wgt id='1979'> +1.4264293e+00 </wgt>
<wgt id='1980'> +1.4417027e+00 </wgt>
<wgt id='1981'> +1.4149115e+00 </wgt>
<wgt id='1982'> +1.4176156e+00 </wgt>
<wgt id='1983'> +1.4509231e+00 </wgt>
<wgt id='1984'> +1.3565383e+00 </wgt>
<wgt id='1985'> +1.4122314e+00 </wgt>
<wgt id='1986'> +1.4459069e+00 </wgt>
<wgt id='1987'> +1.4176195e+00 </wgt>
<wgt id='1988'> +1.4293639e+00 </wgt>
<wgt id='1989'> +1.4194448e+00 </wgt>
<wgt id='1990'> +1.4062787e+00 </wgt>
<wgt id='1991'> +1.4123695e+00 </wgt>
<wgt id='1992'> +1.4950356e+00 </wgt>
<wgt id='1993'> +1.4029887e+00 </wgt>
<wgt id='1994'> +1.4665302e+00 </wgt>
<wgt id='1995'> +1.4145488e+00 </wgt>
<wgt id='1996'> +1.3992265e+00 </wgt>
<wgt id='1997'> +1.4039105e+00 </wgt>
<wgt id='1998'> +1.4596901e+00 </wgt>
<wgt id='1999'> +1.4164667e+00 </wgt>
<wgt id='2000'> +1.4144467e+00 </wgt>
<wgt id='2001'> +1.4644752e+00 </wgt>
<wgt id='2002'> +1.3623544e+00 </wgt>
<wgt id='2003'> +1.4634415e+00 </wgt>
<wgt id='2004'> +1.4453278e+00 </wgt>
<wgt id='2005'> +1.4292435e+00 </wgt>
<wgt id='2006'> +1.4464789e+00 </wgt>
<wgt id='2007'> +1.4561005e+00 </wgt>
<wgt id='2008'> +1.3776091e+00 </wgt>
<wgt id='2009'> +1.4080057e+00 </wgt>
<wgt id='2010'> +1.4374127e+00 </wgt>
<wgt id='2011'> +1.4116048e+00 </wgt>
<wgt id='2012'> +1.4527538e+00 </wgt>
<wgt id='2013'> +1.4277148e+00 </wgt>
<wgt id='2014'> +1.4817617e+00 </wgt>
<wgt id='2015'> +1.3764062e+00 </wgt>
<wgt id='2016'> +1.4345115e+00 </wgt>
<wgt id='2017'> +1.4024599e+00 </wgt>
<wgt id='2018'> +1.4388980e+00 </wgt>
<wgt id='2019'> +1.4429730e+00 </wgt>
<wgt id='2020'> +1.4238064e+00 </wgt>
<wgt id='2021'> +1.4345452e+00 </wgt>
<wgt id='2022'> +1.4132306e+00 </wgt>
</rwgt>
</event>
</LesHouchesEvents>
